 Gaussian 16, Revision A.03,
 Gaussian 16:  ES64L-G16RevA.03 25-Dec-2016

 ---------------------------------------------------------------
 #p ROCCSD(T)/cc-pVTZ Guess=Read SCF=(VeryTight,CDIIS,VShift=10)
 ---------------------------------------------------------------

 --------
 O2_O2_75
 --------
 Symbolic Z-matrix:
 Charge = -1 Multiplicity = 2

                         Standard orientation:
 ---------------------------------------------------------------------
 Center     Atomic      Atomic             Coordinates (Angstroms)
 Number     Number       Type             X           Y           Z
 ---------------------------------------------------------------------
      1          8           0        0.000000    0.000000    1.323523
      2          8           0        0.000000    0.000000    2.675903
      3          8           0        0.000000    0.000000   -2.675903
      4          8           0        0.000000    0.000000   -1.323523
 ---------------------------------------------------------------------

 SCF Done:  E(ROHF) =  -298.981649703     A.U. after   12 cycles
 E2 =    -0.1489076335D+01 EUMP2 =    -0.30047072603842D+03
 CCSD(T)
 CCSD(T)= -0.30022897274D+03

 Unable to determine electronic state:  an orbital has unidentified symmetry.
 Alpha  occ. eigenvalues --  -20.49998 -20.49997 -20.45243 -20.45243  -1.29085
 Alpha  occ. eigenvalues --   -1.28819  -0.91299  -0.89940  -0.48041  -0.47613
 Alpha  occ. eigenvalues --   -0.44736  -0.41812  -0.39761  -0.38364  -0.26572
 Alpha  occ. eigenvalues --   -0.26010  -0.07666
 Alpha virt. eigenvalues --    0.07797   0.49729   0.56426   0.90476   0.92156
 Alpha virt. eigenvalues --    0.92582   0.92716   0.94915   0.95163   0.96889
 Alpha virt. eigenvalues --    0.99646   1.01660   1.09994   1.12151   1.13082

 Mulliken charges and spin densities:
               1          2
     1  O   -0.160070   0.316626
     2  O   -0.339930   0.183374
     3  O   -0.339930   0.183374
     4  O   -0.160070   0.316626
 Sum of Mulliken charges =  -1.00000   1.00000

 Dipole moment (field-independent basis, Debye):
    X=             -0.0000    Y=              0.0000    Z=             -0.0000  Tot=              0.0000
 Quadrupole moment (field-independent basis, Debye-Ang):
   XX=            -22.5372   YY=            -23.1225   ZZ=            -49.0825
   XY=              0.0000   XZ=              0.0000   YZ=              0.0000

 298\CCSD=-300.1018703\CCSD(T)=-300.2289727\RMSD=3.823e-10\PG=D*H [C*(O
 Normal termination of Gaussian 16 at Sat Jan 14 21:16:12 2023.
