 Gaussian 16, Revision A.03,
 Gaussian 16:  ES64L-G16RevA.03 25-Dec-2016

 ---------------------------------------------------------------
 #p ROCCSD(T)/cc-pVTZ Guess=Read SCF=(VeryTight,CDIIS,VShift=10)
 ---------------------------------------------------------------

 --------
 O2_O2_45
 --------
 Symbolic Z-matrix:
 Charge = -1 Multiplicity = 2

                         Standard orientation:
 ---------------------------------------------------------------------
 Center     Atomic      Atomic             Coordinates (Angstroms)
 Number     Number       Type             X           Y           Z
 ---------------------------------------------------------------------
      1          8           0        0.000000    0.000000    1.111144
      2          8           0        0.000000    0.000000    2.463524
      3          8           0        0.000000    0.000000   -2.463524
      4          8           0        0.000000    0.000000   -1.111144
 ---------------------------------------------------------------------

 SCF Done:  E(ROHF) =  -299.005904555     A.U. after   12 cycles
 E2 =    -0.1380649439D+01 EUMP2 =    -0.30038655399396D+03
 CCSD(T)
 CCSD(T)= -0.30023105965D+03

 Unable to determine electronic state:  an orbital has unidentified symmetry.
 Alpha  occ. eigenvalues --  -20.50569 -20.50567 -20.43734 -20.43733  -1.29032
 Alpha  occ. eigenvalues --   -1.28182  -0.92002  -0.88374  -0.48166  -0.46944
 Alpha  occ. eigenvalues --   -0.45961  -0.39842  -0.39283  -0.37321  -0.26299
 Alpha  occ. eigenvalues --   -0.24929  -0.08727
 Alpha virt. eigenvalues --    0.10192   0.51006   0.58500   0.89974   0.91748
 Alpha virt. eigenvalues --    0.92556   0.94287   0.96162   0.97840   1.00149
 Alpha virt. eigenvalues --    1.02097   1.06672   1.12958   1.14058   1.14389

 Mulliken charges and spin densities:
               1          2
     1  O   -0.124052   0.335950
     2  O   -0.375948   0.164050
     3  O   -0.375948   0.164050
     4  O   -0.124052   0.335950
 Sum of Mulliken charges =  -1.00000   1.00000

 Dipole moment (field-independent basis, Debye):
    X=             -0.0000    Y=              0.0000    Z=             -0.0000  Tot=              0.0000
 Quadrupole moment (field-independent basis, Debye-Ang):
   XX=            -22.5971   YY=            -23.1503   ZZ=            -46.0068
   XY=              0.0000   XZ=              0.0000   YZ=              0.0000

 532\CCSD=-300.1139652\CCSD(T)=-300.2310596\RMSD=1.369e-09\PG=D*H [C*(O
 Normal termination of Gaussian 16 at Sat Jan 14 20:30:51 2023.
