 Gaussian 16, Revision A.03,
 Gaussian 16:  ES64L-G16RevA.03 25-Dec-2016

 ---------------------------------------------------------------
 #p ROCCSD(T)/cc-pVTZ Guess=Read SCF=(VeryTight,CDIIS,VShift=10)
 ---------------------------------------------------------------

 ---------
 O2_O2_154
 ---------
 Symbolic Z-matrix:
 Charge = -1 Multiplicity = 2

                         Standard orientation:
 ---------------------------------------------------------------------
 Center     Atomic      Atomic             Coordinates (Angstroms)
 Number     Number       Type             X           Y           Z
 ---------------------------------------------------------------------
      1          8           0        0.000000    0.000000    1.882787
      2          8           0        0.000000    0.000000    3.235167
      3          8           0        0.000000    0.000000   -3.235167
      4          8           0        0.000000    0.000000   -1.882787
 ---------------------------------------------------------------------

 SCF Done:  E(ROHF) =  -299.132247553     A.U. after    8 cycles
 E2 =    -0.1045136322D+01 EUMP2 =    -0.30017738387513D+03
 CCSD(T)
 CCSD(T)= -0.30018368749D+03

 Unable to determine electronic state:  an orbital has unidentified symmetry.
 Alpha  occ. eigenvalues --  -20.47751 -20.47751 -20.46380 -20.46380  -1.29077
 Alpha  occ. eigenvalues --   -1.29057  -0.91094  -0.90952  -0.46403  -0.46374
 Alpha  occ. eigenvalues --   -0.43911  -0.43587  -0.41327  -0.40871  -0.25229
 Alpha  occ. eigenvalues --   -0.25161  -0.07747
 Alpha virt. eigenvalues --    0.03214   0.48813   0.53215   0.84805   0.93084
 Alpha virt. eigenvalues --    0.93434   0.93564   0.94009   0.94145   0.94933
 Alpha virt. eigenvalues --    1.02244   1.02470   1.03979   1.04162   1.07989

 Mulliken charges and spin densities:
               1          2
     1  O   -0.205776   0.266692
     2  O   -0.294224   0.233308
     3  O   -0.294224   0.233308
     4  O   -0.205776   0.266692
 Sum of Mulliken charges =  -1.00000   1.00000

 Dipole moment (field-independent basis, Debye):
    X=             -0.0000    Y=             -0.0000    Z=              0.0000  Tot=              0.0000
 Quadrupole moment (field-independent basis, Debye-Ang):
   XX=            -21.4541   YY=            -23.7663   ZZ=            -59.8921
   XY=              0.0000   XZ=              0.0000   YZ=              0.0000

 378082\CCSD=-300.129013\CCSD(T)=-300.1836875\RMSD=3.788e-09\PG=D*H [C*
 Normal termination of Gaussian 16 at Sat Jan 14 23:12:17 2023.
