 Gaussian 16, Revision A.03,
 Gaussian 16:  ES64L-G16RevA.03 25-Dec-2016

 ---------------------------------------------------------------
 #p ROCCSD(T)/cc-pVTZ Guess=Read SCF=(VeryTight,CDIIS,VShift=10)
 ---------------------------------------------------------------

 ---------
 O2_O2_105
 ---------
 Symbolic Z-matrix:
 Charge = -1 Multiplicity = 2

                         Standard orientation:
 ---------------------------------------------------------------------
 Center     Atomic      Atomic             Coordinates (Angstroms)
 Number     Number       Type             X           Y           Z
 ---------------------------------------------------------------------
      1          8           0        0.000000    0.000000    1.535901
      2          8           0        0.000000    0.000000    2.888281
      3          8           0        0.000000    0.000000   -2.888281
      4          8           0        0.000000    0.000000   -1.535901
 ---------------------------------------------------------------------

 SCF Done:  E(ROHF) =  -298.964350033     A.U. after   11 cycles
 E2 =    -0.1593132888D+01 EUMP2 =    -0.30055748292159D+03
 CCSD(T)
 CCSD(T)= -0.30022689154D+03

 Unable to determine electronic state:  partially filled degenerate orbitals.
 Alpha  occ. eigenvalues --  -20.49716 -20.49715 -20.46260 -20.46259  -1.29370
 Alpha  occ. eigenvalues --   -1.29278  -0.91348  -0.90816  -0.48247  -0.48093
 Alpha  occ. eigenvalues --   -0.44405  -0.43131  -0.39947  -0.39084  -0.26908
 Alpha  occ. eigenvalues --   -0.26720  -0.07096
 Alpha virt. eigenvalues --    0.06140   0.48467   0.54855   0.84836   0.91581
 Alpha virt. eigenvalues --    0.92728   0.93576   0.94198   0.94764   0.95959
 Alpha virt. eigenvalues --    1.00038   1.02148   1.06282   1.08404   1.12958

 Mulliken charges and spin densities:
               1          2
     1  O   -0.180516   0.302524
     2  O   -0.319484   0.197476
     3  O   -0.319484   0.197476
     4  O   -0.180516   0.302524
 Sum of Mulliken charges =  -1.00000   1.00000

 Dipole moment (field-independent basis, Debye):
    X=             -0.0000    Y=              0.0000    Z=              0.0000  Tot=              0.0000
 Quadrupole moment (field-independent basis, Debye-Ang):
   XX=            -22.4868   YY=            -23.0960   ZZ=            -52.9389
   XY=              0.0000   XZ=              0.0000   YZ=              0.0000

 33\CCSD=-300.0930192\CCSD(T)=-300.2268915\RMSD=6.927e-09\PG=D*H [C*(O1
 Normal termination of Gaussian 16 at Sat Jan 14 22:01:38 2023.
