 Gaussian 16, Revision A.03,
 Gaussian 16:  ES64L-G16RevA.03 25-Dec-2016

 ---------------------------------------------------------------
 #p ROCCSD(T)/cc-pVTZ Guess=Read SCF=(VeryTight,CDIIS,VShift=10)
 ---------------------------------------------------------------

 --------
 O2_O2_97
 --------
 Symbolic Z-matrix:
 Charge = -1 Multiplicity = 2

                         Standard orientation:
 ---------------------------------------------------------------------
 Center     Atomic      Atomic             Coordinates (Angstroms)
 Number     Number       Type             X           Y           Z
 ---------------------------------------------------------------------
      1          8           0        0.000000    0.000000    1.479267
      2          8           0        0.000000    0.000000    2.831647
      3          8           0        0.000000    0.000000   -2.831647
      4          8           0        0.000000    0.000000   -1.479267
 ---------------------------------------------------------------------

 SCF Done:  E(ROHF) =  -298.968258115     A.U. after   11 cycles
 E2 =    -0.1565961493D+01 EUMP2 =    -0.30053421960859D+03
 CCSD(T)
 CCSD(T)= -0.30022727405D+03

 Unable to determine electronic state:  an orbital has unidentified symmetry.
 Alpha  occ. eigenvalues --  -20.49764 -20.49763 -20.46020 -20.46020  -1.29284
 Alpha  occ. eigenvalues --   -1.29164  -0.91300  -0.90621  -0.48176  -0.47975
 Alpha  occ. eigenvalues --   -0.44438  -0.42847  -0.39884  -0.38913  -0.26814
 Alpha  occ. eigenvalues --   -0.26553  -0.07215
 Alpha virt. eigenvalues --    0.06532   0.48757   0.55249   0.86278   0.91316
 Alpha virt. eigenvalues --    0.92589   0.93364   0.94451   0.94793   0.96204
 Alpha virt. eigenvalues --    0.99873   1.01960   1.07170   1.09300   1.13009

 Mulliken charges and spin densities:
               1          2
     1  O   -0.176029   0.305815
     2  O   -0.323971   0.194185
     3  O   -0.323971   0.194185
     4  O   -0.176029   0.305815
 Sum of Mulliken charges =  -1.00000   1.00000

 Dipole moment (field-independent basis, Debye):
    X=             -0.0000    Y=              0.0000    Z=             -0.0000  Tot=              0.0000
 Quadrupole moment (field-independent basis, Debye-Ang):
   XX=            -22.4983   YY=            -23.1021   ZZ=            -51.8516
   XY=              0.0000   XZ=              0.0000   YZ=              0.0000

 05071\CCSD=-300.0949592\CCSD(T)=-300.2272741\RMSD=7.696e-09\PG=D*H [C*
 Normal termination of Gaussian 16 at Sat Jan 14 21:48:59 2023.
