 Gaussian 16, Revision A.03,
 Gaussian 16:  ES64L-G16RevA.03 25-Dec-2016

 ---------------------------------------------------------------
 #p ROCCSD(T)/cc-pVTZ Guess=Read SCF=(VeryTight,CDIIS,VShift=10)
 ---------------------------------------------------------------

 --------
 O2_O2_28
 --------
 Symbolic Z-matrix:
 Charge = -1 Multiplicity = 2

                         Standard orientation:
 ---------------------------------------------------------------------
 Center     Atomic      Atomic             Coordinates (Angstroms)
 Number     Number       Type             X           Y           Z
 ---------------------------------------------------------------------
      1          8           0        0.000000    0.000000    0.990795
      2          8           0        0.000000    0.000000    2.343176
      3          8           0        0.000000    0.000000   -2.343176
      4          8           0        0.000000    0.000000   -0.990795
 ---------------------------------------------------------------------

 SCF Done:  E(ROHF) =  -299.018531010     A.U. after    9 cycles
 E2 =    -0.1319995426D+01 EUMP2 =    -0.30033852643536D+03
 CCSD(T)
 CCSD(T)= -0.30022745601D+03

 Unable to determine electronic state:  an orbital has unidentified symmetry.
 Alpha  occ. eigenvalues --  -20.50996 -20.50993 -20.42462 -20.42462  -1.29335
 Alpha  occ. eigenvalues --   -1.27623  -0.93261  -0.86856  -0.48643  -0.47322
 Alpha  occ. eigenvalues --   -0.46371  -0.40203  -0.36650  -0.36460  -0.26167
 Alpha  occ. eigenvalues --   -0.23997  -0.09686
 Alpha virt. eigenvalues --    0.12104   0.51599   0.60221   0.90462   0.91582
 Alpha virt. eigenvalues --    0.93235   0.93872   0.96806   0.98446   1.01002
 Alpha virt. eigenvalues --    1.02970   1.11895   1.12700   1.16052   1.17787

 Mulliken charges and spin densities:
               1          2
     1  O   -0.092298   0.348913
     2  O   -0.407702   0.151087
     3  O   -0.407702   0.151087
     4  O   -0.092298   0.348913
 Sum of Mulliken charges =  -1.00000   1.00000

 Dipole moment (field-independent basis, Debye):
    X=             -0.0000    Y=              0.0000    Z=              0.0000  Tot=              0.0000
 Quadrupole moment (field-independent basis, Debye-Ang):
   XX=            -22.6119   YY=            -23.1469   ZZ=            -44.8204
   XY=              0.0000   XZ=              0.0000   YZ=              0.0000

 672\CCSD=-300.1177822\CCSD(T)=-300.227456\RMSD=6.542e-09\PG=D*H [C*(O1
 Normal termination of Gaussian 16 at Sat Jan 14 20:05:38 2023.
