 Gaussian 16, Revision A.03,
 Gaussian 16:  ES64L-G16RevA.03 25-Dec-2016

 ---------------------------------------------------------------
 #p ROCCSD(T)/cc-pVTZ Guess=Read SCF=(VeryTight,CDIIS,VShift=10)
 ---------------------------------------------------------------

 --------
 O2_O2_98
 --------
 Symbolic Z-matrix:
 Charge = -1 Multiplicity = 2

                         Standard orientation:
 ---------------------------------------------------------------------
 Center     Atomic      Atomic             Coordinates (Angstroms)
 Number     Number       Type             X           Y           Z
 ---------------------------------------------------------------------
      1          8           0        0.000000    0.000000    1.486346
      2          8           0        0.000000    0.000000    2.838726
      3          8           0        0.000000    0.000000   -2.838726
      4          8           0        0.000000    0.000000   -1.486346
 ---------------------------------------------------------------------

 SCF Done:  E(ROHF) =  -298.967743909     A.U. after   11 cycles
 E2 =    -0.1569381660D+01 EUMP2 =    -0.30053712556852D+03
 CCSD(T)
 CCSD(T)= -0.30022721919D+03

 Unable to determine electronic state:  an orbital has unidentified symmetry.
 Alpha  occ. eigenvalues --  -20.49757 -20.49756 -20.46051 -20.46051  -1.29295
 Alpha  occ. eigenvalues --   -1.29178  -0.91305  -0.90646  -0.48185  -0.47990
 Alpha  occ. eigenvalues --   -0.44432  -0.42885  -0.39892  -0.38935  -0.26825
 Alpha  occ. eigenvalues --   -0.26575  -0.07199
 Alpha virt. eigenvalues --    0.06482   0.48718   0.55199   0.86073   0.91351
 Alpha virt. eigenvalues --    0.92607   0.93392   0.94419   0.94789   0.96173
 Alpha virt. eigenvalues --    0.99892   1.01982   1.07054   1.09183   1.13003

 Mulliken charges and spin densities:
               1          2
     1  O   -0.176622   0.305386
     2  O   -0.323378   0.194614
     3  O   -0.323378   0.194614
     4  O   -0.176622   0.305386
 Sum of Mulliken charges =  -1.00000   1.00000

 Dipole moment (field-independent basis, Debye):
    X=             -0.0000    Y=             -0.0000    Z=              0.0000  Tot=              0.0000
 Quadrupole moment (field-independent basis, Debye-Ang):
   XX=            -22.4968   YY=            -23.1013   ZZ=            -51.9854
   XY=              0.0000   XZ=              0.0000   YZ=              0.0000

 69843\CCSD=-300.094701\CCSD(T)=-300.2272192\RMSD=7.605e-09\PG=D*H [C*(
 Normal termination of Gaussian 16 at Sat Jan 14 21:50:30 2023.
