 Gaussian 16, Revision A.03,
 Gaussian 16:  ES64L-G16RevA.03 25-Dec-2016

 ---------------------------------------------------------------
 #p ROCCSD(T)/cc-pVTZ Guess=Read SCF=(VeryTight,CDIIS,VShift=10)
 ---------------------------------------------------------------

 ---------
 O2_O2_178
 ---------
 Symbolic Z-matrix:
 Charge = -1 Multiplicity = 2

                         Standard orientation:
 ---------------------------------------------------------------------
 Center     Atomic      Atomic             Coordinates (Angstroms)
 Number     Number       Type             X           Y           Z
 ---------------------------------------------------------------------
      1          8           0        0.000000    0.000000    2.052690
      2          8           0        0.000000    0.000000    3.405070
      3          8           0        0.000000    0.000000   -3.405070
      4          8           0        0.000000    0.000000   -2.052690
 ---------------------------------------------------------------------

 SCF Done:  E(ROHF) =  -299.131703075     A.U. after    8 cycles
 E2 =    -0.1045667527D+01 EUMP2 =    -0.30017737060210D+03
 CCSD(T)
 CCSD(T)= -0.30018301197D+03

 Unable to determine electronic state:  an orbital has unidentified symmetry.
 Alpha  occ. eigenvalues --  -20.47974 -20.47974 -20.46779 -20.46779  -1.29383
 Alpha  occ. eigenvalues --   -1.29372  -0.91389  -0.91304  -0.46703  -0.46691
 Alpha  occ. eigenvalues --   -0.44158  -0.43999  -0.41593  -0.41232  -0.25526
 Alpha  occ. eigenvalues --   -0.25496  -0.07675
 Alpha virt. eigenvalues --    0.02481   0.49386   0.52160   0.86981   0.92632
 Alpha virt. eigenvalues --    0.93311   0.93446   0.93559   0.93696   0.95219
 Alpha virt. eigenvalues --    1.01993   1.02387   1.02601   1.03137   1.03333

 Mulliken charges and spin densities:
               1          2
     1  O   -0.210966   0.265058
     2  O   -0.289034   0.234942
     3  O   -0.289034   0.234942
     4  O   -0.210966   0.265058
 Sum of Mulliken charges =  -1.00000   1.00000

 Dipole moment (field-independent basis, Debye):
    X=             -0.0000    Y=              0.0000    Z=              0.0000  Tot=              0.0000
 Quadrupole moment (field-independent basis, Debye-Ang):
   XX=            -21.4486   YY=            -23.7647   ZZ=            -64.0270
   XY=              0.0000   XZ=              0.0000   YZ=              0.0000

 370901\CCSD=-300.1283661\CCSD(T)=-300.183012\RMSD=1.821e-09\PG=D*H [C*
 Normal termination of Gaussian 16 at Sat Jan 14 23:43:58 2023.
