 Gaussian 16, Revision A.03,
 Gaussian 16:  ES64L-G16RevA.03 25-Dec-2016

 ---------------------------------------------------------------
 #p ROCCSD(T)/cc-pVTZ Guess=Read SCF=(VeryTight,CDIIS,VShift=10)
 ---------------------------------------------------------------

 --------
 O2_O2_27
 --------
 Symbolic Z-matrix:
 Charge = -1 Multiplicity = 2

                         Standard orientation:
 ---------------------------------------------------------------------
 Center     Atomic      Atomic             Coordinates (Angstroms)
 Number     Number       Type             X           Y           Z
 ---------------------------------------------------------------------
      1          8           0        0.000000    0.000000    0.983716
      2          8           0        0.000000    0.000000    2.336097
      3          8           0        0.000000    0.000000   -2.336097
      4          8           0        0.000000    0.000000   -0.983716
 ---------------------------------------------------------------------

 SCF Done:  E(ROHF) =  -299.019039835     A.U. after    9 cycles
 E2 =    -0.1316537380D+01 EUMP2 =    -0.30033557721507D+03
 CCSD(T)
 CCSD(T)= -0.30022694112D+03

 Unable to determine electronic state:  an orbital has unidentified symmetry.
 Alpha  occ. eigenvalues --  -20.51023 -20.51020 -20.42373 -20.42373  -1.29370
 Alpha  occ. eigenvalues --   -1.27583  -0.93369  -0.86745  -0.48689  -0.47420
 Alpha  occ. eigenvalues --   -0.46331  -0.40239  -0.36450  -0.36401  -0.26159
 Alpha  occ. eigenvalues --   -0.23932  -0.09752
 Alpha virt. eigenvalues --    0.12233   0.51629   0.60344   0.90506   0.91572
 Alpha virt. eigenvalues --    0.93288   0.93846   0.96848   0.98486   1.01069
 Alpha virt. eigenvalues --    1.03039   1.11959   1.12678   1.16158   1.18164

 Mulliken charges and spin densities:
               1          2
     1  O   -0.090109   0.349701
     2  O   -0.409891   0.150299
     3  O   -0.409891   0.150299
     4  O   -0.090109   0.349701
 Sum of Mulliken charges =  -1.00000   1.00000

 Dipole moment (field-independent basis, Debye):
    X=             -0.0000    Y=              0.0000    Z=              0.0000  Tot=              0.0000
 Quadrupole moment (field-independent basis, Debye-Ang):
   XX=            -22.6116   YY=            -23.1456   ZZ=            -44.7679
   XY=              0.0000   XZ=              0.0000   YZ=              0.0000

 28432\CCSD=-300.1177394\CCSD(T)=-300.2269411\RMSD=7.233e-09\PG=D*H [C*
 Normal termination of Gaussian 16 at Sat Jan 14 20:04:02 2023.
