 Gaussian 16, Revision A.03,
 Gaussian 16:  ES64L-G16RevA.03 25-Dec-2016

 ---------------------------------------------------------------
 #p ROCCSD(T)/cc-pVTZ Guess=Read SCF=(VeryTight,CDIIS,VShift=10)
 ---------------------------------------------------------------

 ---------
 O2_O2_133
 ---------
 Symbolic Z-matrix:
 Charge = -1 Multiplicity = 2

                         Standard orientation:
 ---------------------------------------------------------------------
 Center     Atomic      Atomic             Coordinates (Angstroms)
 Number     Number       Type             X           Y           Z
 ---------------------------------------------------------------------
      1          8           0        0.000000    0.000000    1.734121
      2          8           0        0.000000    0.000000    3.086501
      3          8           0        0.000000    0.000000   -3.086501
      4          8           0        0.000000    0.000000   -1.734121
 ---------------------------------------------------------------------

 SCF Done:  E(ROHF) =  -299.133004463     A.U. after    8 cycles
 E2 =    -0.1044618208D+01 EUMP2 =    -0.30017762267152D+03
 CCSD(T)
 CCSD(T)= -0.30018464578D+03

 Unable to determine electronic state:  an orbital has unidentified symmetry.
 Alpha  occ. eigenvalues --  -20.47549 -20.47548 -20.45984 -20.45984  -1.28785
 Alpha  occ. eigenvalues --   -1.28748  -0.90828  -0.90586  -0.46120  -0.46061
 Alpha  occ. eigenvalues --   -0.43722  -0.43131  -0.41079  -0.40505  -0.24956
 Alpha  occ. eigenvalues --   -0.24819  -0.07845
 Alpha virt. eigenvalues --    0.03973   0.48517   0.54223   0.83732   0.93182
 Alpha virt. eigenvalues --    0.93414   0.93532   0.94511   0.94642   0.94843
 Alpha virt. eigenvalues --    1.01882   1.02125   1.05155   1.05318   1.12995

 Mulliken charges and spin densities:
               1          2
     1  O   -0.200296   0.268151
     2  O   -0.299704   0.231849
     3  O   -0.299704   0.231849
     4  O   -0.200296   0.268151
 Sum of Mulliken charges =  -1.00000   1.00000

 Dipole moment (field-independent basis, Debye):
    X=             -0.0000    Y=              0.0000    Z=             -0.0000  Tot=              0.0000
 Quadrupole moment (field-independent basis, Debye-Ang):
   XX=            -21.4618   YY=            -23.7680   ZZ=            -56.5208
   XY=              0.0000   XZ=              0.0000   YZ=              0.0000

 38801\CCSD=-300.1299252\CCSD(T)=-300.1846458\RMSD=7.063e-09\PG=D*H [C*
 Normal termination of Gaussian 16 at Sat Jan 14 22:43:05 2023.
