 Gaussian 16, Revision A.03,
 Gaussian 16:  ES64L-G16RevA.03 25-Dec-2016

 ---------------------------------------------------------------
 #p ROCCSD(T)/cc-pVTZ Guess=Read SCF=(VeryTight,CDIIS,VShift=10)
 ---------------------------------------------------------------

 ---------
 O2_O2_171
 ---------
 Symbolic Z-matrix:
 Charge = -1 Multiplicity = 2

                         Standard orientation:
 ---------------------------------------------------------------------
 Center     Atomic      Atomic             Coordinates (Angstroms)
 Number     Number       Type             X           Y           Z
 ---------------------------------------------------------------------
      1          8           0        0.000000    0.000000    2.003135
      2          8           0        0.000000    0.000000    3.355515
      3          8           0        0.000000    0.000000   -3.355515
      4          8           0        0.000000    0.000000   -2.003135
 ---------------------------------------------------------------------

 SCF Done:  E(ROHF) =  -299.131833825     A.U. after    8 cycles
 E2 =    -0.1045517449D+01 EUMP2 =    -0.30017735127443D+03
 CCSD(T)
 CCSD(T)= -0.30018317164D+03

 Unable to determine electronic state:  an orbital has unidentified symmetry.
 Alpha  occ. eigenvalues --  -20.47910 -20.47910 -20.46668 -20.46667  -1.29297
 Alpha  occ. eigenvalues --   -1.29284  -0.91304  -0.91207  -0.46618  -0.46602
 Alpha  occ. eigenvalues --   -0.44085  -0.43888  -0.41518  -0.41132  -0.25442
 Alpha  occ. eigenvalues --   -0.25403  -0.07693
 Alpha virt. eigenvalues --    0.02683   0.49223   0.52452   0.86344   0.92803
 Alpha virt. eigenvalues --    0.93357   0.93492   0.93678   0.93815   0.95116
 Alpha virt. eigenvalues --    1.02371   1.02588   1.03341   1.03438   1.03534

 Mulliken charges and spin densities:
               1          2
     1  O   -0.209551   0.265526
     2  O   -0.290449   0.234474
     3  O   -0.290449   0.234474
     4  O   -0.209551   0.265526
 Sum of Mulliken charges =  -1.00000   1.00000

 Dipole moment (field-independent basis, Debye):
    X=             -0.0000    Y=              0.0000    Z=              0.0000  Tot=              0.0000
 Quadrupole moment (field-independent basis, Debye-Ang):
   XX=            -21.4499   YY=            -23.7651   ZZ=            -62.7904
   XY=              0.0000   XZ=              0.0000   YZ=              0.0000

 372627\CCSD=-300.1285199\CCSD(T)=-300.1831716\RMSD=2.172e-09\PG=D*H [C
 Normal termination of Gaussian 16 at Sat Jan 14 23:34:50 2023.
