 Gaussian 16, Revision A.03,
 Gaussian 16:  ES64L-G16RevA.03 25-Dec-2016

 ---------------------------------------------------------------
 #p ROCCSD(T)/cc-pVTZ Guess=Read SCF=(VeryTight,CDIIS,VShift=10)
 ---------------------------------------------------------------

 ---------
 O2_O2_253
 ---------
 Symbolic Z-matrix:
 Charge = -1 Multiplicity = 2

                         Standard orientation:
 ---------------------------------------------------------------------
 Center     Atomic      Atomic             Coordinates (Angstroms)
 Number     Number       Type             X           Y           Z
 ---------------------------------------------------------------------
      1          8           0        0.000000    0.000000    2.583636
      2          8           0        0.000000    0.000000    3.936016
      3          8           0        0.000000    0.000000   -3.936016
      4          8           0        0.000000    0.000000   -2.583636
 ---------------------------------------------------------------------

 SCF Done:  E(ROHF) =  -299.131084337     A.U. after    8 cycles
 E2 =    -0.1047022863D+01 EUMP2 =    -0.30017810719989D+03
 CCSD(T)
 CCSD(T)= -0.30018229669D+03

 Unable to determine electronic state:  an orbital has unidentified symmetry.
 Alpha  occ. eigenvalues --  -20.48587 -20.48587 -20.47756 -20.47756  -1.30165
 Alpha  occ. eigenvalues --   -1.30162  -0.92172  -0.92141  -0.47481  -0.47481
 Alpha  occ. eigenvalues --   -0.44909  -0.44896  -0.42300  -0.42100  -0.26312
 Alpha  occ. eigenvalues --   -0.26310  -0.07582
 Alpha virt. eigenvalues --    0.00768   0.49900   0.50150   0.89760   0.90296
 Alpha virt. eigenvalues --    0.92665   0.92675   0.92803   0.92812   0.95966
 Alpha virt. eigenvalues --    0.96346   1.01939   1.01967   1.02146   1.02173

 Mulliken charges and spin densities:
               1          2
     1  O   -0.222486   0.260849
     2  O   -0.277514   0.239151
     3  O   -0.277514   0.239151
     4  O   -0.222486   0.260849
 Sum of Mulliken charges =  -1.00000   1.00000

 Dipole moment (field-independent basis, Debye):
    X=             -0.0000    Y=             -0.0000    Z=              0.0000  Tot=              0.0000
 Quadrupole moment (field-independent basis, Debye-Ang):
   XX=            -21.4424   YY=            -23.7615   ZZ=            -78.8273
   XY=              0.0000   XZ=              0.0000   YZ=              0.0000

 362374\CCSD=-300.127658\CCSD(T)=-300.1822967\RMSD=1.372e-09\PG=D*H [C*
 Normal termination of Gaussian 16 at Sun Jan 15 01:24:20 2023.
