 Gaussian 16, Revision A.03,
 Gaussian 16:  ES64L-G16RevA.03 25-Dec-2016

 ---------------------------------------------------------------
 #p ROCCSD(T)/cc-pVTZ Guess=Read SCF=(VeryTight,CDIIS,VShift=10)
 ---------------------------------------------------------------

 ---------
 O2_O2_293
 ---------
 Symbolic Z-matrix:
 Charge = -1 Multiplicity = 2

                         Standard orientation:
 ---------------------------------------------------------------------
 Center     Atomic      Atomic             Coordinates (Angstroms)
 Number     Number       Type             X           Y           Z
 ---------------------------------------------------------------------
      1          8           0        0.000000    0.000000    2.866808
      2          8           0        0.000000    0.000000    4.219188
      3          8           0        0.000000    0.000000   -4.219188
      4          8           0        0.000000    0.000000   -2.866808
 ---------------------------------------------------------------------

 SCF Done:  E(ROHF) =  -299.130982409     A.U. after    8 cycles
 E2 =    -0.1047567562D+01 EUMP2 =    -0.30017854997132D+03
 CCSD(T)
 CCSD(T)= -0.30018218996D+03

 Unable to determine electronic state:  an orbital has unidentified symmetry.
 Alpha  occ. eigenvalues --  -20.48855 -20.48855 -20.48153 -20.48153  -1.30493
 Alpha  occ. eigenvalues --   -1.30491  -0.92503  -0.92481  -0.47809  -0.47809
 Alpha  occ. eigenvalues --   -0.45244  -0.45240  -0.42604  -0.42451  -0.26644
 Alpha  occ. eigenvalues --   -0.26643  -0.07563
 Alpha virt. eigenvalues --    0.00082   0.49652   0.49693   0.89632   0.89722
 Alpha virt. eigenvalues --    0.92348   0.92349   0.92485   0.92486   0.95749
 Alpha virt. eigenvalues --    0.95803   1.01619   1.01622   1.01826   1.01829

 Mulliken charges and spin densities:
               1          2
     1  O   -0.226700   0.259217
     2  O   -0.273300   0.240783
     3  O   -0.273300   0.240783
     4  O   -0.226700   0.259217
 Sum of Mulliken charges =  -1.00000   1.00000

 Dipole moment (field-independent basis, Debye):
    X=             -0.0000    Y=             -0.0000    Z=             -0.0000  Tot=              0.0000
 Quadrupole moment (field-independent basis, Debye-Ang):
   XX=            -21.4413   YY=            -23.7605   ZZ=            -87.8766
   XY=              0.0000   XZ=              0.0000   YZ=              0.0000

 14\CCSD=-300.1275438\CCSD(T)=-300.18219\RMSD=1.048e-09\PG=D*H [C*(O1O1
 Normal termination of Gaussian 16 at Sun Jan 15 02:18:41 2023.
