 Gaussian 16, Revision A.03,
 Gaussian 16:  ES64L-G16RevA.03 25-Dec-2016

 ---------------------------------------------------------------
 #p ROCCSD(T)/cc-pVTZ Guess=Read SCF=(VeryTight,CDIIS,VShift=10)
 ---------------------------------------------------------------

 --------
 O2_O2_86
 --------
 Symbolic Z-matrix:
 Charge = -1 Multiplicity = 2

                         Standard orientation:
 ---------------------------------------------------------------------
 Center     Atomic      Atomic             Coordinates (Angstroms)
 Number     Number       Type             X           Y           Z
 ---------------------------------------------------------------------
      1          8           0        0.000000    0.000000    1.401395
      2          8           0        0.000000    0.000000    2.753775
      3          8           0        0.000000    0.000000   -2.753775
      4          8           0        0.000000    0.000000   -1.401395
 ---------------------------------------------------------------------

 SCF Done:  E(ROHF) =  -298.974439009     A.U. after   11 cycles
 E2 =    -0.1527901256D+01 EUMP2 =    -0.30050234026418D+03
 CCSD(T)
 CCSD(T)= -0.30022801210D+03

 Unable to determine electronic state:  an orbital has unidentified symmetry.
 Alpha  occ. eigenvalues --  -20.49862 -20.49861 -20.45656 -20.45656  -1.29176
 Alpha  occ. eigenvalues --   -1.28998  -0.91270  -0.90312  -0.48095  -0.47802
 Alpha  occ. eigenvalues --   -0.44543  -0.42384  -0.39812  -0.38654  -0.26689
 Alpha  occ. eigenvalues --   -0.26300  -0.07415
 Alpha virt. eigenvalues --    0.07126   0.49226   0.55816   0.89016   0.90899
 Alpha virt. eigenvalues --    0.92371   0.93035   0.94806   0.94829   0.96546
 Alpha virt. eigenvalues --    0.99709   1.01761   1.08525   1.10667   1.13059

 Mulliken charges and spin densities:
               1          2
     1  O   -0.168807   0.310878
     2  O   -0.331193   0.189122
     3  O   -0.331193   0.189122
     4  O   -0.168807   0.310878
 Sum of Mulliken charges =  -1.00000   1.00000

 Dipole moment (field-independent basis, Debye):
    X=             -0.0000    Y=              0.0000    Z=             -0.0000  Tot=              0.0000
 Quadrupole moment (field-independent basis, Debye-Ang):
   XX=            -22.5165   YY=            -23.1117   ZZ=            -50.4238
   XY=              0.0000   XZ=              0.0000   YZ=              0.0000

 914\CCSD=-300.0981159\CCSD(T)=-300.2280121\RMSD=8.663e-09\PG=D*H [C*(O
 Normal termination of Gaussian 16 at Sat Jan 14 21:32:25 2023.
