 Gaussian 16, Revision A.03,
 Gaussian 16:  ES64L-G16RevA.03 25-Dec-2016

 ---------------------------------------------------------------
 #p ROCCSD(T)/cc-pVTZ Guess=Read SCF=(VeryTight,CDIIS,VShift=10)
 ---------------------------------------------------------------

 ---------
 O2_O2_181
 ---------
 Symbolic Z-matrix:
 Charge = -1 Multiplicity = 2

                         Standard orientation:
 ---------------------------------------------------------------------
 Center     Atomic      Atomic             Coordinates (Angstroms)
 Number     Number       Type             X           Y           Z
 ---------------------------------------------------------------------
      1          8           0        0.000000    0.000000    2.073927
      2          8           0        0.000000    0.000000    3.426307
      3          8           0        0.000000    0.000000   -3.426307
      4          8           0        0.000000    0.000000   -2.073927
 ---------------------------------------------------------------------

 SCF Done:  E(ROHF) =  -299.131653035     A.U. after    8 cycles
 E2 =    -0.1045730713D+01 EUMP2 =    -0.30017738374780D+03
 CCSD(T)
 CCSD(T)= -0.30018295146D+03

 Unable to determine electronic state:  an orbital has unidentified symmetry.
 Alpha  occ. eigenvalues --  -20.48001 -20.48001 -20.46825 -20.46825  -1.29419
 Alpha  occ. eigenvalues --   -1.29408  -0.91424  -0.91345  -0.46738  -0.46728
 Alpha  occ. eigenvalues --   -0.44190  -0.44045  -0.41625  -0.41273  -0.25562
 Alpha  occ. eigenvalues --   -0.25535  -0.07669
 Alpha virt. eigenvalues --    0.02398   0.49451   0.52039   0.87240   0.92549
 Alpha virt. eigenvalues --    0.93289   0.93425   0.93510   0.93648   0.95267
 Alpha virt. eigenvalues --    1.01446   1.02388   1.02601   1.03058   1.03255

 Mulliken charges and spin densities:
               1          2
     1  O   -0.211550   0.264861
     2  O   -0.288450   0.235139
     3  O   -0.288450   0.235139
     4  O   -0.211550   0.264861
 Sum of Mulliken charges =  -1.00000   1.00000

 Dipole moment (field-independent basis, Debye):
    X=             -0.0000    Y=              0.0000    Z=              0.0000  Tot=              0.0000
 Quadrupole moment (field-independent basis, Debye-Ang):
   XX=            -21.4481   YY=            -23.7645   ZZ=            -64.5646
   XY=              0.0000   XZ=              0.0000   YZ=              0.0000

 0239\CCSD=-300.1283076\CCSD(T)=-300.1829515\RMSD=1.717e-09\PG=D*H [C*(
 Normal termination of Gaussian 16 at Sat Jan 14 23:47:54 2023.
