 Gaussian 16, Revision A.03,
 Gaussian 16:  ES64L-G16RevA.03 25-Dec-2016

 ---------------------------------------------------------------
 #p ROCCSD(T)/cc-pVTZ Guess=Read SCF=(VeryTight,CDIIS,VShift=10)
 ---------------------------------------------------------------

 --------
 O2_O2_10
 --------
 Symbolic Z-matrix:
 Charge = -1 Multiplicity = 2

                         Standard orientation:
 ---------------------------------------------------------------------
 Center     Atomic      Atomic             Coordinates (Angstroms)
 Number     Number       Type             X           Y           Z
 ---------------------------------------------------------------------
      1          8           0        0.000000    0.000000    0.863368
      2          8           0        0.000000    0.000000    2.215749
      3          8           0        0.000000    0.000000   -2.215749
      4          8           0        0.000000    0.000000   -0.863368
 ---------------------------------------------------------------------

 SCF Done:  E(ROHF) =  -299.017037939     A.U. after   10 cycles
 E2 =    -0.1262316218D+01 EUMP2 =    -0.30027935415696D+03
 CCSD(T)
 CCSD(T)= -0.30020724021D+03

 Unable to determine electronic state:  an orbital has unidentified symmetry.
 Alpha  occ. eigenvalues --  -20.51558 -20.51553 -20.40538 -20.40538  -1.30535
 Alpha  occ. eigenvalues --   -1.26732  -0.96057  -0.84397  -0.50032  -0.49387
 Alpha  occ. eigenvalues --   -0.45480  -0.41298  -0.35197  -0.31884  -0.25995
 Alpha  occ. eigenvalues --   -0.22584  -0.11086
 Alpha virt. eigenvalues --    0.14788   0.51939   0.63059   0.91311   0.91466
 Alpha virt. eigenvalues --    0.93293   0.94173   0.97652   0.99252   1.02543
 Alpha virt. eigenvalues --    1.04576   1.11553   1.12175   1.17731   1.20053

 Mulliken charges and spin densities:
               1          2
     1  O   -0.044515   0.362912
     2  O   -0.455485   0.137088
     3  O   -0.455485   0.137088
     4  O   -0.044515   0.362912
 Sum of Mulliken charges =  -1.00000   1.00000

 Dipole moment (field-independent basis, Debye):
    X=             -0.0000    Y=             -0.0000    Z=             -0.0000  Tot=              0.0000
 Quadrupole moment (field-independent basis, Debye-Ang):
   XX=            -22.5733   YY=            -23.0942   ZZ=            -44.2647
   XY=              0.0000   XZ=              0.0000   YZ=              0.0000

 72792\CCSD=-300.1063834\CCSD(T)=-300.2072402\RMSD=9.354e-09\PG=D*H [C*
 Normal termination of Gaussian 16 at Sat Jan 14 19:39:17 2023.
