 Gaussian 16, Revision A.03,
 Gaussian 16:  ES64L-G16RevA.03 25-Dec-2016

 ---------------------------------------------------------------
 #p ROCCSD(T)/cc-pVTZ Guess=Read SCF=(VeryTight,CDIIS,VShift=10)
 ---------------------------------------------------------------

 --------
 O2_O2_68
 --------
 Symbolic Z-matrix:
 Charge = -1 Multiplicity = 2

                         Standard orientation:
 ---------------------------------------------------------------------
 Center     Atomic      Atomic             Coordinates (Angstroms)
 Number     Number       Type             X           Y           Z
 ---------------------------------------------------------------------
      1          8           0        0.000000    0.000000    1.273967
      2          8           0        0.000000    0.000000    2.626348
      3          8           0        0.000000    0.000000   -2.626348
      4          8           0        0.000000    0.000000   -1.273967
 ---------------------------------------------------------------------

 SCF Done:  E(ROHF) =  -298.986789053     A.U. after   12 cycles
 E2 =    -0.1464021935D+01 EUMP2 =    -0.30045081098836D+03
 CCSD(T)
 CCSD(T)= -0.30022965229D+03

 Unable to determine electronic state:  an orbital has unidentified symmetry.
 Alpha  occ. eigenvalues --  -20.50106 -20.50105 -20.44949 -20.44949  -1.29040
 Alpha  occ. eigenvalues --   -1.28694  -0.91363  -0.89659  -0.48026  -0.47481
 Alpha  occ. eigenvalues --   -0.44918  -0.41373  -0.39745  -0.38159  -0.26502
 Alpha  occ. eigenvalues --   -0.25802  -0.07859
 Alpha virt. eigenvalues --    0.08273   0.50047   0.56846   0.90241   0.92035
 Alpha virt. eigenvalues --    0.92555   0.94376   0.95391   0.95887   0.97107
 Alpha virt. eigenvalues --    0.99669   1.01661   1.10961   1.13081   1.13127

 Mulliken charges and spin densities:
               1          2
     1  O   -0.153507   0.320659
     2  O   -0.346493   0.179341
     3  O   -0.346493   0.179341
     4  O   -0.153507   0.320659
 Sum of Mulliken charges =  -1.00000   1.00000

 Dipole moment (field-independent basis, Debye):
    X=             -0.0000    Y=             -0.0000    Z=              0.0000  Tot=              0.0000
 Quadrupole moment (field-independent basis, Debye-Ang):
   XX=            -22.5514   YY=            -23.1298   ZZ=            -48.2804
   XY=              0.0000   XZ=              0.0000   YZ=              0.0000

 922\CCSD=-300.104552\CCSD(T)=-300.2296523\RMSD=3.098e-10\PG=D*H [C*(O1
 Normal termination of Gaussian 16 at Sat Jan 14 21:05:36 2023.
