 Gaussian 16, Revision A.03,
 Gaussian 16:  ES64L-G16RevA.03 25-Dec-2016

 ---------------------------------------------------------------
 #p ROCCSD(T)/cc-pVTZ Guess=Read SCF=(VeryTight,CDIIS,VShift=10)
 ---------------------------------------------------------------

 ---------
 O2_O2_125
 ---------
 Symbolic Z-matrix:
 Charge = -1 Multiplicity = 2

                         Standard orientation:
 ---------------------------------------------------------------------
 Center     Atomic      Atomic             Coordinates (Angstroms)
 Number     Number       Type             X           Y           Z
 ---------------------------------------------------------------------
      1          8           0        0.000000    0.000000    1.677487
      2          8           0        0.000000    0.000000    3.029867
      3          8           0        0.000000    0.000000   -3.029867
      4          8           0        0.000000    0.000000   -1.677487
 ---------------------------------------------------------------------

 SCF Done:  E(ROHF) =  -299.133385079     A.U. after    8 cycles
 E2 =    -0.1044399771D+01 EUMP2 =    -0.30017778485001D+03
 CCSD(T)
 CCSD(T)= -0.30018512708D+03

 Unable to determine electronic state:  an orbital has unidentified symmetry.
 Alpha  occ. eigenvalues --  -20.47470 -20.47469 -20.45819 -20.45818  -1.28667
 Alpha  occ. eigenvalues --   -1.28621  -0.90728  -0.90428  -0.46007  -0.45931
 Alpha  occ. eigenvalues --   -0.43664  -0.42924  -0.40981  -0.40349  -0.24849
 Alpha  occ. eigenvalues --   -0.24674  -0.07895
 Alpha virt. eigenvalues --    0.04300   0.48538   0.54620   0.83805   0.93151
 Alpha virt. eigenvalues --    0.93357   0.93466   0.94728   0.94841   0.94856
 Alpha virt. eigenvalues --    1.01690   1.01940   1.05750   1.05902   1.13158

 Mulliken charges and spin densities:
               1          2
     1  O   -0.197899   0.268691
     2  O   -0.302101   0.231309
     3  O   -0.302101   0.231309
     4  O   -0.197899   0.268691
 Sum of Mulliken charges =  -1.00000   1.00000

 Dipole moment (field-independent basis, Debye):
    X=             -0.0000    Y=              0.0000    Z=             -0.0000  Tot=              0.0000
 Quadrupole moment (field-independent basis, Debye-Ang):
   XX=            -21.4657   YY=            -23.7687   ZZ=            -55.2983
   XY=              0.0000   XZ=              0.0000   YZ=              0.0000

 392959\CCSD=-300.1303839\CCSD(T)=-300.1851271\RMSD=8.680e-09\PG=D*H [C
 Normal termination of Gaussian 16 at Sat Jan 14 22:32:18 2023.
