 Gaussian 16, Revision A.03,
 Gaussian 16:  ES64L-G16RevA.03 25-Dec-2016

 ---------------------------------------------------------------
 #p ROCCSD(T)/cc-pVTZ Guess=Read SCF=(VeryTight,CDIIS,VShift=10)
 ---------------------------------------------------------------

 --------
 O2_O2_43
 --------
 Symbolic Z-matrix:
 Charge = -1 Multiplicity = 2

                         Standard orientation:
 ---------------------------------------------------------------------
 Center     Atomic      Atomic             Coordinates (Angstroms)
 Number     Number       Type             X           Y           Z
 ---------------------------------------------------------------------
      1          8           0        0.000000    0.000000    1.096985
      2          8           0        0.000000    0.000000    2.449365
      3          8           0        0.000000    0.000000   -2.449365
      4          8           0        0.000000    0.000000   -1.096985
 ---------------------------------------------------------------------

 SCF Done:  E(ROHF) =  -299.007602139     A.U. after   12 cycles
 E2 =    -0.1373403659D+01 EUMP2 =    -0.30038100579723D+03
 CCSD(T)
 CCSD(T)= -0.30023098205D+03

 Unable to determine electronic state:  an orbital has unidentified symmetry.
 Alpha  occ. eigenvalues --  -20.50616 -20.50614 -20.43604 -20.43604  -1.29048
 Alpha  occ. eigenvalues --   -1.28127  -0.92104  -0.88226  -0.48199  -0.46887
 Alpha  occ. eigenvalues --   -0.46092  -0.39866  -0.39035  -0.37233  -0.26283
 Alpha  occ. eigenvalues --   -0.24835  -0.08823
 Alpha virt. eigenvalues --    0.10391   0.51082   0.58673   0.90001   0.91728
 Alpha virt. eigenvalues --    0.92607   0.94243   0.96233   0.97906   1.00224
 Alpha virt. eigenvalues --    1.02172   1.07629   1.12937   1.14310   1.14509

 Mulliken charges and spin densities:
               1          2
     1  O   -0.120797   0.337416
     2  O   -0.379203   0.162584
     3  O   -0.379203   0.162584
     4  O   -0.120797   0.337416
 Sum of Mulliken charges =  -1.00000   1.00000

 Dipole moment (field-independent basis, Debye):
    X=             -0.0000    Y=             -0.0000    Z=             -0.0000  Tot=              0.0000
 Quadrupole moment (field-independent basis, Debye-Ang):
   XX=            -22.6002   YY=            -23.1512   ZZ=            -45.8416
   XY=              0.0000   XZ=              0.0000   YZ=              0.0000

 22\CCSD=-300.1146949\CCSD(T)=-300.2309821\RMSD=1.416e-09\PG=D*H [C*(O1
 Normal termination of Gaussian 16 at Sat Jan 14 20:27:53 2023.
