 Gaussian 16, Revision A.03,
 Gaussian 16:  ES64L-G16RevA.03 25-Dec-2016

 ---------------------------------------------------------------
 #p ROCCSD(T)/cc-pVTZ Guess=Read SCF=(VeryTight,CDIIS,VShift=10)
 ---------------------------------------------------------------

 --------
 O2_O2_40
 --------
 Symbolic Z-matrix:
 Charge = -1 Multiplicity = 2

                         Standard orientation:
 ---------------------------------------------------------------------
 Center     Atomic      Atomic             Coordinates (Angstroms)
 Number     Number       Type             X           Y           Z
 ---------------------------------------------------------------------
      1          8           0        0.000000    0.000000    1.075747
      2          8           0        0.000000    0.000000    2.428127
      3          8           0        0.000000    0.000000   -2.428127
      4          8           0        0.000000    0.000000   -1.075747
 ---------------------------------------------------------------------

 SCF Done:  E(ROHF) =  -299.010095841     A.U. after   11 cycles
 E2 =    -0.1362567417D+01 EUMP2 =    -0.30037266325767D+03
 CCSD(T)
 CCSD(T)= -0.30023074157D+03

 Unable to determine electronic state:  an orbital has unidentified symmetry.
 Alpha  occ. eigenvalues --  -20.50688 -20.50686 -20.43401 -20.43401  -1.29080
 Alpha  occ. eigenvalues --   -1.28039  -0.92277  -0.87991  -0.48258  -0.46796
 Alpha  occ. eigenvalues --   -0.46302  -0.39911  -0.38637  -0.37094  -0.26260
 Alpha  occ. eigenvalues --   -0.24687  -0.08976
 Alpha virt. eigenvalues --    0.10702   0.51193   0.58945   0.90057   0.91698
 Alpha virt. eigenvalues --    0.92699   0.94172   0.96341   0.98008   1.00349
 Alpha virt. eigenvalues --    1.02297   1.08970   1.12901   1.14679   1.14770

 Mulliken charges and spin densities:
               1          2
     1  O   -0.115686   0.339651
     2  O   -0.384314   0.160349
     3  O   -0.384314   0.160349
     4  O   -0.115686   0.339651
 Sum of Mulliken charges =  -1.00000   1.00000

 Dipole moment (field-independent basis, Debye):
    X=             -0.0000    Y=             -0.0000    Z=             -0.0000  Tot=              0.0000
 Quadrupole moment (field-independent basis, Debye-Ang):
   XX=            -22.6044   YY=            -23.1521   ZZ=            -45.6055
   XY=              0.0000   XZ=              0.0000   YZ=              0.0000

 68402\CCSD=-300.1156996\CCSD(T)=-300.2307416\RMSD=9.526e-09\PG=D*H [C*
 Normal termination of Gaussian 16 at Sat Jan 14 20:23:26 2023.
