 Gaussian 16, Revision A.03,
 Gaussian 16:  ES64L-G16RevA.03 25-Dec-2016

 ---------------------------------------------------------------
 #p ROCCSD(T)/cc-pVTZ Guess=Read SCF=(VeryTight,CDIIS,VShift=10)
 ---------------------------------------------------------------

 ---------
 O2_O2_239
 ---------
 Symbolic Z-matrix:
 Charge = -1 Multiplicity = 2

                         Standard orientation:
 ---------------------------------------------------------------------
 Center     Atomic      Atomic             Coordinates (Angstroms)
 Number     Number       Type             X           Y           Z
 ---------------------------------------------------------------------
      1          8           0        0.000000    0.000000    2.484526
      2          8           0        0.000000    0.000000    3.836906
      3          8           0        0.000000    0.000000   -3.836906
      4          8           0        0.000000    0.000000   -2.484526
 ---------------------------------------------------------------------

 SCF Done:  E(ROHF) =  -299.131138375     A.U. after    8 cycles
 E2 =    -0.1046805794D+01 EUMP2 =    -0.30017794416942D+03
 CCSD(T)
 CCSD(T)= -0.30018235551D+03

 Unable to determine electronic state:  an orbital has unidentified symmetry.
 Alpha  occ. eigenvalues --  -20.48483 -20.48483 -20.47600 -20.47600  -1.30037
 Alpha  occ. eigenvalues --   -1.30033  -0.92042  -0.92008  -0.47353  -0.47352
 Alpha  occ. eigenvalues --   -0.44779  -0.44759  -0.42182  -0.41961  -0.26182
 Alpha  occ. eigenvalues --   -0.26179  -0.07592
 Alpha virt. eigenvalues --    0.01039   0.49945   0.50379   0.89687   0.90618
 Alpha virt. eigenvalues --    0.92786   0.92804   0.92924   0.92942   0.95970
 Alpha virt. eigenvalues --    0.96677   1.02056   1.02111   1.02262   1.02316

 Mulliken charges and spin densities:
               1          2
     1  O   -0.220744   0.261515
     2  O   -0.279256   0.238485
     3  O   -0.279256   0.238485
     4  O   -0.220744   0.261515
 Sum of Mulliken charges =  -1.00000   1.00000

 Dipole moment (field-independent basis, Debye):
    X=             -0.0000    Y=              0.0000    Z=              0.0000  Tot=              0.0000
 Quadrupole moment (field-independent basis, Debye-Ang):
   XX=            -21.4430   YY=            -23.7619   ZZ=            -75.8498
   XY=              0.0000   XZ=              0.0000   YZ=              0.0000

 363195\CCSD=-300.1277188\CCSD(T)=-300.1823555\RMSD=1.487e-09\PG=D*H [C
 Normal termination of Gaussian 16 at Sun Jan 15 01:05:22 2023.
