 Gaussian 16, Revision A.03,
 Gaussian 16:  ES64L-G16RevA.03 25-Dec-2016

 ---------------------------------------------------------------
 #p ROCCSD(T)/cc-pVTZ Guess=Read SCF=(VeryTight,CDIIS,VShift=10)
 ---------------------------------------------------------------

 --------
 O2_O2_19
 --------
 Symbolic Z-matrix:
 Charge = -1 Multiplicity = 2

                         Standard orientation:
 ---------------------------------------------------------------------
 Center     Atomic      Atomic             Coordinates (Angstroms)
 Number     Number       Type             X           Y           Z
 ---------------------------------------------------------------------
      1          8           0        0.000000    0.000000    0.927082
      2          8           0        0.000000    0.000000    2.279462
      3          8           0        0.000000    0.000000   -2.279462
      4          8           0        0.000000    0.000000   -0.927082
 ---------------------------------------------------------------------

 SCF Done:  E(ROHF) =  -299.021166372     A.U. after    9 cycles
 E2 =    -0.1289715941D+01 EUMP2 =    -0.30031088231324D+03
 CCSD(T)
 CCSD(T)= -0.30022070923D+03

 Unable to determine electronic state:  an orbital has unidentified symmetry.
 Alpha  occ. eigenvalues --  -20.51252 -20.51249 -20.41592 -20.41592  -1.29752
 Alpha  occ. eigenvalues --   -1.27225  -0.94414  -0.85757  -0.49168  -0.48278
 Alpha  occ. eigenvalues --   -0.45970  -0.40610  -0.35883  -0.34608  -0.26092
 Alpha  occ. eigenvalues --   -0.23356  -0.10335
 Alpha virt. eigenvalues --    0.13349   0.51831   0.61456   0.90891   0.91508
 Alpha virt. eigenvalues --    0.93626   0.93731   0.97201   0.98821   1.01680
 Alpha virt. eigenvalues --    1.03679   1.12021   1.12475   1.16955   1.19235

 Mulliken charges and spin densities:
               1          2
     1  O   -0.070897   0.356011
     2  O   -0.429103   0.143989
     3  O   -0.429103   0.143989
     4  O   -0.070897   0.356011
 Sum of Mulliken charges =  -1.00000   1.00000

 Dipole moment (field-independent basis, Debye):
    X=             -0.0000    Y=             -0.0000    Z=             -0.0000  Tot=              0.0000
 Quadrupole moment (field-independent basis, Debye-Ang):
   XX=            -22.6026   YY=            -23.1294   ZZ=            -44.4320
   XY=              0.0000   XZ=              0.0000   YZ=              0.0000

 54845\CCSD=-300.1153933\CCSD(T)=-300.2207092\RMSD=7.731e-09\PG=D*H [C*
 Normal termination of Gaussian 16 at Sat Jan 14 19:52:03 2023.
