 Gaussian 16, Revision A.03,
 Gaussian 16:  ES64L-G16RevA.03 25-Dec-2016

 ---------------------------------------------------------------
 #p ROCCSD(T)/cc-pVTZ Guess=Read SCF=(VeryTight,CDIIS,VShift=10)
 ---------------------------------------------------------------

 ---------
 O2_O2_141
 ---------
 Symbolic Z-matrix:
 Charge = -1 Multiplicity = 2

                         Standard orientation:
 ---------------------------------------------------------------------
 Center     Atomic      Atomic             Coordinates (Angstroms)
 Number     Number       Type             X           Y           Z
 ---------------------------------------------------------------------
      1          8           0        0.000000    0.000000    1.790756
      2          8           0        0.000000    0.000000    3.143136
      3          8           0        0.000000    0.000000   -3.143136
      4          8           0        0.000000    0.000000   -1.790756
 ---------------------------------------------------------------------

 SCF Done:  E(ROHF) =  -299.132678257     A.U. after    8 cycles
 E2 =    -0.1044823746D+01 EUMP2 =    -0.30017750200328D+03
 CCSD(T)
 CCSD(T)= -0.30018423232D+03

 Unable to determine electronic state:  an orbital has unidentified symmetry.
 Alpha  occ. eigenvalues --  -20.47627 -20.47626 -20.46140 -20.46140  -1.28899
 Alpha  occ. eigenvalues --   -1.28870  -0.90929  -0.90734  -0.46230  -0.46185
 Alpha  occ. eigenvalues --   -0.43788  -0.43318  -0.41175  -0.40651  -0.25061
 Alpha  occ. eigenvalues --   -0.24956  -0.07802
 Alpha virt. eigenvalues --    0.03669   0.48580   0.53833   0.83960   0.93176
 Alpha virt. eigenvalues --    0.93441   0.93565   0.94308   0.94441   0.94861
 Alpha virt. eigenvalues --    1.02047   1.02283   1.04647   1.04818   1.12172

 Mulliken charges and spin densities:
               1          2
     1  O   -0.202507   0.267598
     2  O   -0.297493   0.232402
     3  O   -0.297493   0.232402
     4  O   -0.202507   0.267598
 Sum of Mulliken charges =  -1.00000   1.00000

 Dipole moment (field-independent basis, Debye):
    X=             -0.0000    Y=              0.0000    Z=              0.0000  Tot=              0.0000
 Quadrupole moment (field-independent basis, Debye-Ang):
   XX=            -21.4584   YY=            -23.7673   ZZ=            -57.7776
   XY=              0.0000   XZ=              0.0000   YZ=              0.0000

 3744\CCSD=-300.1295317\CCSD(T)=-300.1842323\RMSD=5.692e-09\PG=D*H [C*(
 Normal termination of Gaussian 16 at Sat Jan 14 22:53:48 2023.
