 Gaussian 16, Revision A.03,
 Gaussian 16:  ES64L-G16RevA.03 25-Dec-2016

 ---------------------------------------------------------------
 #p ROCCSD(T)/cc-pVTZ Guess=Read SCF=(VeryTight,CDIIS,VShift=10)
 ---------------------------------------------------------------

 ---------
 O2_O2_210
 ---------
 Symbolic Z-matrix:
 Charge = -1 Multiplicity = 2

                         Standard orientation:
 ---------------------------------------------------------------------
 Center     Atomic      Atomic             Coordinates (Angstroms)
 Number     Number       Type             X           Y           Z
 ---------------------------------------------------------------------
      1          8           0        0.000000    0.000000    2.279227
      2          8           0        0.000000    0.000000    3.631607
      3          8           0        0.000000    0.000000   -3.631607
      4          8           0        0.000000    0.000000   -2.279227
 ---------------------------------------------------------------------

 SCF Done:  E(ROHF) =  -299.131313218     A.U. after    8 cycles
 E2 =    -0.1046304427D+01 EUMP2 =    -0.30017761764498D+03
 CCSD(T)
 CCSD(T)= -0.30018255172D+03

 Unable to determine electronic state:  an orbital has unidentified symmetry.
 Alpha  occ. eigenvalues --  -20.48253 -20.48252 -20.47240 -20.47240  -1.29746
 Alpha  occ. eigenvalues --   -1.29741  -0.91750  -0.91701  -0.47064  -0.47060
 Alpha  occ. eigenvalues --   -0.44493  -0.44436  -0.41918  -0.41643  -0.25889
 Alpha  occ. eigenvalues --   -0.25880  -0.07620
 Alpha virt. eigenvalues --    0.01664   0.49874   0.51046   0.89043   0.91550
 Alpha virt. eigenvalues --    0.93045   0.93114   0.93183   0.93252   0.95741
 Alpha virt. eigenvalues --    0.98021   1.02277   1.02484   1.02485   1.02686

 Mulliken charges and spin densities:
               1          2
     1  O   -0.216595   0.263070
     2  O   -0.283405   0.236930
     3  O   -0.283405   0.236930
     4  O   -0.216595   0.263070
 Sum of Mulliken charges =  -1.00000   1.00000

 Dipole moment (field-independent basis, Debye):
    X=             -0.0000    Y=              0.0000    Z=              0.0000  Tot=              0.0000
 Quadrupole moment (field-independent basis, Debye-Ang):
   XX=            -21.4447   YY=            -23.7630   ZZ=            -69.9957
   XY=              0.0000   XZ=              0.0000   YZ=              0.0000

 365683\CCSD=-300.1279164\CCSD(T)=-300.1825517\RMSD=1.558e-09\PG=D*H [C
 Normal termination of Gaussian 16 at Sun Jan 15 00:26:36 2023.
