 Gaussian 16, Revision A.03,
 Gaussian 16:  ES64L-G16RevA.03 25-Dec-2016

 ---------------------------------------------------------------
 #p ROCCSD(T)/cc-pVTZ Guess=Read SCF=(VeryTight,CDIIS,VShift=10)
 ---------------------------------------------------------------

 --------
 O2_O2_87
 --------
 Symbolic Z-matrix:
 Charge = -1 Multiplicity = 2

                         Standard orientation:
 ---------------------------------------------------------------------
 Center     Atomic      Atomic             Coordinates (Angstroms)
 Number     Number       Type             X           Y           Z
 ---------------------------------------------------------------------
      1          8           0        0.000000    0.000000    1.408474
      2          8           0        0.000000    0.000000    2.760854
      3          8           0        0.000000    0.000000   -2.760854
      4          8           0        0.000000    0.000000   -1.408474
 ---------------------------------------------------------------------

 SCF Done:  E(ROHF) =  -298.973835745     A.U. after   11 cycles
 E2 =    -0.1531394121D+01 EUMP2 =    -0.30050522986539D+03
 CCSD(T)
 CCSD(T)= -0.30022793500D+03

 Unable to determine electronic state:  an orbital has unidentified symmetry.
 Alpha  occ. eigenvalues --  -20.49851 -20.49850 -20.45691 -20.45691  -1.29185
 Alpha  occ. eigenvalues --   -1.29014  -0.91270  -0.90342  -0.48102  -0.47818
 Alpha  occ. eigenvalues --   -0.44530  -0.42430  -0.39817  -0.38679  -0.26701
 Alpha  occ. eigenvalues --   -0.26324  -0.07395
 Alpha virt. eigenvalues --    0.07069   0.49181   0.55762   0.88730   0.90938
 Alpha virt. eigenvalues --    0.92391   0.93066   0.94773   0.94826   0.96515
 Alpha virt. eigenvalues --    0.99720   1.01775   1.08396   1.10537   1.13055

 Mulliken charges and spin densities:
               1          2
     1  O   -0.169521   0.310390
     2  O   -0.330479   0.189610
     3  O   -0.330479   0.189610
     4  O   -0.169521   0.310390
 Sum of Mulliken charges =  -1.00000   1.00000

 Dipole moment (field-independent basis, Debye):
    X=             -0.0000    Y=              0.0000    Z=              0.0000  Tot=              0.0000
 Quadrupole moment (field-independent basis, Debye-Ang):
   XX=            -22.5147   YY=            -23.1107   ZZ=            -50.5502
   XY=              0.0000   XZ=              0.0000   YZ=              0.0000

 0865\CCSD=-300.0978043\CCSD(T)=-300.227935\RMSD=8.569e-09\PG=D*H [C*(O
 Normal termination of Gaussian 16 at Sat Jan 14 21:33:55 2023.
