 Gaussian 16, Revision A.03,
 Gaussian 16:  ES64L-G16RevA.03 25-Dec-2016

 ---------------------------------------------------------------
 #p ROCCSD(T)/cc-pVTZ Guess=Read SCF=(VeryTight,CDIIS,VShift=10)
 ---------------------------------------------------------------

 -------
 O2_O2_7
 -------
 Symbolic Z-matrix:
 Charge = -1 Multiplicity = 2

                         Standard orientation:
 ---------------------------------------------------------------------
 Center     Atomic      Atomic             Coordinates (Angstroms)
 Number     Number       Type             X           Y           Z
 ---------------------------------------------------------------------
      1          8           0        0.000000    0.000000    0.842130
      2          8           0        0.000000    0.000000    2.194511
      3          8           0        0.000000    0.000000   -2.194511
      4          8           0        0.000000    0.000000   -0.842130
 ---------------------------------------------------------------------

 SCF Done:  E(ROHF) =  -299.013316521     A.U. after   12 cycles
 E2 =    -0.1254180320D+01 EUMP2 =    -0.30026749684033D+03
 CCSD(T)
 CCSD(T)= -0.30020056980D+03

 Unable to determine electronic state:  an orbital has unidentified symmetry.
 Alpha  occ. eigenvalues --  -20.51682 -20.51676 -20.40136 -20.40136  -1.30927
 Alpha  occ. eigenvalues --   -1.26544  -0.96734  -0.83879  -0.50430  -0.49784
 Alpha  occ. eigenvalues --   -0.45295  -0.41621  -0.34941  -0.30781  -0.25954
 Alpha  occ. eigenvalues --   -0.22293  -0.11357
 Alpha virt. eigenvalues --    0.15313   0.51930   0.63705   0.91426   0.91463
 Alpha virt. eigenvalues --    0.93143   0.94280   0.97818   0.99411   1.02874
 Alpha virt. eigenvalues --    1.04915   1.11312   1.12059   1.17959   1.20297

 Mulliken charges and spin densities:
               1          2
     1  O   -0.034249   0.365093
     2  O   -0.465751   0.134907
     3  O   -0.465751   0.134907
     4  O   -0.034249   0.365093
 Sum of Mulliken charges =  -1.00000   1.00000

 Dipole moment (field-independent basis, Debye):
    X=             -0.0000    Y=             -0.0000    Z=              0.0000  Tot=              0.0000
 Quadrupole moment (field-independent basis, Debye-Ang):
   XX=            -22.5578   YY=            -23.0773   ZZ=            -44.2685
   XY=              0.0000   XZ=              0.0000   YZ=              0.0000

 5752\CCSD=-300.1011681\CCSD(T)=-300.2005698\RMSD=1.518e-09\PG=D*H [C*(
 Normal termination of Gaussian 16 at Sat Jan 14 19:34:44 2023.
