 Gaussian 16, Revision A.03,
 Gaussian 16:  ES64L-G16RevA.03 25-Dec-2016

 ---------------------------------------------------------------
 #p ROCCSD(T)/cc-pVTZ Guess=Read SCF=(VeryTight,CDIIS,VShift=10)
 ---------------------------------------------------------------

 ---------
 O2_O2_251
 ---------
 Symbolic Z-matrix:
 Charge = -1 Multiplicity = 2

                         Standard orientation:
 ---------------------------------------------------------------------
 Center     Atomic      Atomic             Coordinates (Angstroms)
 Number     Number       Type             X           Y           Z
 ---------------------------------------------------------------------
      1          8           0        0.000000    0.000000    2.569478
      2          8           0        0.000000    0.000000    3.921858
      3          8           0        0.000000    0.000000   -3.921858
      4          8           0        0.000000    0.000000   -2.569478
 ---------------------------------------------------------------------

 SCF Done:  E(ROHF) =  -299.131091254     A.U. after    8 cycles
 E2 =    -0.1046992776D+01 EUMP2 =    -0.30017808403015D+03
 CCSD(T)
 CCSD(T)= -0.30018230415D+03

 Unable to determine electronic state:  an orbital has unidentified symmetry.
 Alpha  occ. eigenvalues --  -20.48572 -20.48572 -20.47735 -20.47735  -1.30147
 Alpha  occ. eigenvalues --   -1.30144  -0.92154  -0.92123  -0.47463  -0.47463
 Alpha  occ. eigenvalues --   -0.44891  -0.44877  -0.42283  -0.42081  -0.26294
 Alpha  occ. eigenvalues --   -0.26292  -0.07584
 Alpha virt. eigenvalues --    0.00806   0.49908   0.50180   0.89755   0.90337
 Alpha virt. eigenvalues --    0.92682   0.92692   0.92820   0.92830   0.95970
 Alpha virt. eigenvalues --    0.96387   1.01956   1.01986   1.02162   1.02192

 Mulliken charges and spin densities:
               1          2
     1  O   -0.222247   0.260941
     2  O   -0.277753   0.239059
     3  O   -0.277753   0.239059
     4  O   -0.222247   0.260941
 Sum of Mulliken charges =  -1.00000   1.00000

 Dipole moment (field-independent basis, Debye):
    X=             -0.0000    Y=             -0.0000    Z=             -0.0000  Tot=              0.0000
 Quadrupole moment (field-independent basis, Debye-Ang):
   XX=            -21.4425   YY=            -23.7615   ZZ=            -78.3959
   XY=              0.0000   XZ=              0.0000   YZ=              0.0000

 2481\CCSD=-300.1276658\CCSD(T)=-300.1823042\RMSD=1.389e-09\PG=D*H [C*(
 Normal termination of Gaussian 16 at Sun Jan 15 01:21:39 2023.
