 Gaussian 16, Revision A.03,
 Gaussian 16:  ES64L-G16RevA.03 25-Dec-2016

 ---------------------------------------------------------------
 #p ROCCSD(T)/cc-pVTZ Guess=Read SCF=(VeryTight,CDIIS,VShift=10)
 ---------------------------------------------------------------

 ---------
 O2_O2_284
 ---------
 Symbolic Z-matrix:
 Charge = -1 Multiplicity = 2

                         Standard orientation:
 ---------------------------------------------------------------------
 Center     Atomic      Atomic             Coordinates (Angstroms)
 Number     Number       Type             X           Y           Z
 ---------------------------------------------------------------------
      1          8           0        0.000000    0.000000    2.803094
      2          8           0        0.000000    0.000000    4.155474
      3          8           0        0.000000    0.000000   -4.155474
      4          8           0        0.000000    0.000000   -2.803094
 ---------------------------------------------------------------------

 SCF Done:  E(ROHF) =  -299.131000682     A.U. after    8 cycles
 E2 =    -0.1047453750D+01 EUMP2 =    -0.30017845443150D+03
 CCSD(T)
 CCSD(T)= -0.30018220850D+03

 Unable to determine electronic state:  an orbital has unidentified symmetry.
 Alpha  occ. eigenvalues --  -20.48798 -20.48798 -20.48070 -20.48070  -1.30423
 Alpha  occ. eigenvalues --   -1.30421  -0.92433  -0.92409  -0.47740  -0.47740
 Alpha  occ. eigenvalues --   -0.45173  -0.45168  -0.42540  -0.42377  -0.26574
 Alpha  occ. eigenvalues --   -0.26573  -0.07566
 Alpha virt. eigenvalues --    0.00226   0.49715   0.49779   0.89683   0.89821
 Alpha virt. eigenvalues --    0.92415   0.92417   0.92553   0.92554   0.95811
 Alpha virt. eigenvalues --    0.95897   1.01688   1.01693   1.01895   1.01900

 Mulliken charges and spin densities:
               1          2
     1  O   -0.225840   0.259552
     2  O   -0.274160   0.240448
     3  O   -0.274160   0.240448
     4  O   -0.225840   0.259552
 Sum of Mulliken charges =  -1.00000   1.00000

 Dipole moment (field-independent basis, Debye):
    X=             -0.0000    Y=              0.0000    Z=              0.0000  Tot=              0.0000
 Quadrupole moment (field-independent basis, Debye-Ang):
   XX=            -21.4415   YY=            -23.7607   ZZ=            -85.7706
   XY=              0.0000   XZ=              0.0000   YZ=              0.0000

 61024\CCSD=-300.1275642\CCSD(T)=-300.1822085\RMSD=1.113e-09\PG=D*H [C*
 Normal termination of Gaussian 16 at Sun Jan 15 02:06:36 2023.
