 Gaussian 16, Revision A.03,
 Gaussian 16:  ES64L-G16RevA.03 25-Dec-2016

 ---------------------------------------------------------------
 #p ROCCSD(T)/cc-pVTZ Guess=Read SCF=(VeryTight,CDIIS,VShift=10)
 ---------------------------------------------------------------

 --------
 O2_O2_32
 --------
 Symbolic Z-matrix:
 Charge = -1 Multiplicity = 2

                         Standard orientation:
 ---------------------------------------------------------------------
 Center     Atomic      Atomic             Coordinates (Angstroms)
 Number     Number       Type             X           Y           Z
 ---------------------------------------------------------------------
      1          8           0        0.000000    0.000000    1.019113
      2          8           0        0.000000    0.000000    2.371493
      3          8           0        0.000000    0.000000   -2.371493
      4          8           0        0.000000    0.000000   -1.019113
 ---------------------------------------------------------------------

 SCF Done:  E(ROHF) =  -299.016121860     A.U. after    8 cycles
 E2 =    -0.1333996102D+01 EUMP2 =    -0.30035011796143D+03
 CCSD(T)
 CCSD(T)= -0.30022908168D+03

 Unable to determine electronic state:  an orbital has unidentified symmetry.
 Alpha  occ. eigenvalues --  -20.50890 -20.50887 -20.42800 -20.42800  -1.29222
 Alpha  occ. eigenvalues --   -1.27775  -0.92873  -0.87272  -0.48483  -0.46949
 Alpha  occ. eigenvalues --   -0.46525  -0.40081  -0.37392  -0.36687  -0.26198
 Alpha  occ. eigenvalues --   -0.24246  -0.09430
 Alpha virt. eigenvalues --    0.11606   0.51472   0.59757   0.90299   0.91619
 Alpha virt. eigenvalues --    0.93031   0.93973   0.96644   0.98294   1.00755
 Alpha virt. eigenvalues --    1.02713   1.11417   1.12778   1.15614   1.16403

 Mulliken charges and spin densities:
               1          2
     1  O   -0.100655   0.345780
     2  O   -0.399345   0.154220
     3  O   -0.399345   0.154220
     4  O   -0.100655   0.345780
 Sum of Mulliken charges =  -1.00000   1.00000

 Dipole moment (field-independent basis, Debye):
    X=             -0.0000    Y=              0.0000    Z=             -0.0000  Tot=              0.0000
 Quadrupole moment (field-independent basis, Debye-Ang):
   XX=            -22.6114   YY=            -23.1504   ZZ=            -45.0515
   XY=              0.0000   XZ=              0.0000   YZ=              0.0000

 952\CCSD=-300.1175532\CCSD(T)=-300.2290817\RMSD=9.821e-09\PG=D*H [C*(O
 Normal termination of Gaussian 16 at Sat Jan 14 20:11:26 2023.
