 Gaussian 16, Revision A.03,
 Gaussian 16:  ES64L-G16RevA.03 25-Dec-2016

 ---------------------------------------------------------------
 #p ROCCSD(T)/cc-pVTZ Guess=Read SCF=(VeryTight,CDIIS,VShift=10)
 ---------------------------------------------------------------

 --------
 O2_O2_92
 --------
 Symbolic Z-matrix:
 Charge = -1 Multiplicity = 2

                         Standard orientation:
 ---------------------------------------------------------------------
 Center     Atomic      Atomic             Coordinates (Angstroms)
 Number     Number       Type             X           Y           Z
 ---------------------------------------------------------------------
      1          8           0        0.000000    0.000000    1.443871
      2          8           0        0.000000    0.000000    2.796251
      3          8           0        0.000000    0.000000   -2.796251
      4          8           0        0.000000    0.000000   -1.443871
 ---------------------------------------------------------------------

 SCF Done:  E(ROHF) =  -298.970945597     A.U. after   11 cycles
 E2 =    -0.1548760683D+01 EUMP2 =    -0.30051970627949D+03
 CCSD(T)
 CCSD(T)= -0.30022757907D+03

 Unable to determine electronic state:  an orbital has unidentified symmetry.
 Alpha  occ. eigenvalues --  -20.49804 -20.49803 -20.45860 -20.45860  -1.29233
 Alpha  occ. eigenvalues --   -1.29090  -0.91281  -0.90487  -0.48137  -0.47898
 Alpha  occ. eigenvalues --   -0.44477  -0.42648  -0.39849  -0.38799  -0.26757
 Alpha  occ. eigenvalues --   -0.26442  -0.07300
 Alpha virt. eigenvalues --    0.06794   0.48963   0.55502   0.87413   0.91131
 Alpha virt. eigenvalues --    0.92492   0.93217   0.94612   0.94810   0.96359
 Alpha virt. eigenvalues --    0.99788   1.01859   1.07768   1.09904   1.13034

 Mulliken charges and spin densities:
               1          2
     1  O   -0.172911   0.308035
     2  O   -0.327089   0.191965
     3  O   -0.327089   0.191965
     4  O   -0.172911   0.308035
 Sum of Mulliken charges =  -1.00000   1.00000

 Dipole moment (field-independent basis, Debye):
    X=             -0.0000    Y=              0.0000    Z=             -0.0000  Tot=              0.0000
 Quadrupole moment (field-independent basis, Debye-Ang):
   XX=            -22.5062   YY=            -23.1063   ZZ=            -51.1926
   XY=              0.0000   XZ=              0.0000   YZ=              0.0000

 68175\CCSD=-300.096321\CCSD(T)=-300.2275791\RMSD=8.133e-09\PG=D*H [C*(
 Normal termination of Gaussian 16 at Sat Jan 14 21:41:30 2023.
