 Gaussian 16, Revision A.03,
 Gaussian 16:  ES64L-G16RevA.03 25-Dec-2016

 ---------------------------------------------------------------
 #p ROCCSD(T)/cc-pVTZ Guess=Read SCF=(VeryTight,CDIIS,VShift=10)
 ---------------------------------------------------------------

 --------
 O2_O2_25
 --------
 Symbolic Z-matrix:
 Charge = -1 Multiplicity = 2

                         Standard orientation:
 ---------------------------------------------------------------------
 Center     Atomic      Atomic             Coordinates (Angstroms)
 Number     Number       Type             X           Y           Z
 ---------------------------------------------------------------------
      1          8           0        0.000000    0.000000    0.969558
      2          8           0        0.000000    0.000000    2.321938
      3          8           0        0.000000    0.000000   -2.321938
      4          8           0        0.000000    0.000000   -0.969558
 ---------------------------------------------------------------------

 SCF Done:  E(ROHF) =  -299.019920849     A.U. after    9 cycles
 E2 =    -0.1309681197D+01 EUMP2 =    -0.30032960204589D+03
 CCSD(T)
 CCSD(T)= -0.30022575361D+03

 Unable to determine electronic state:  an orbital has unidentified symmetry.
 Alpha  occ. eigenvalues --  -20.51078 -20.51075 -20.42190 -20.42190  -1.29446
 Alpha  occ. eigenvalues --   -1.27500  -0.93599  -0.86516  -0.48789  -0.47622
 Alpha  occ. eigenvalues --   -0.46246  -0.40316  -0.36279  -0.36032  -0.26143
 Alpha  occ. eigenvalues --   -0.23797  -0.09890
 Alpha virt. eigenvalues --    0.12499   0.51686   0.60601   0.90598   0.91555
 Alpha virt. eigenvalues --    0.93397   0.93793   0.96932   0.98566   1.01209
 Alpha virt. eigenvalues --    1.03185   1.12040   1.12633   1.16366   1.18623

 Mulliken charges and spin densities:
               1          2
     1  O   -0.085603   0.351279
     2  O   -0.414397   0.148721
     3  O   -0.414397   0.148721
     4  O   -0.085603   0.351279
 Sum of Mulliken charges =  -1.00000   1.00000

 Dipole moment (field-independent basis, Debye):
    X=             -0.0000    Y=              0.0000    Z=             -0.0000  Tot=              0.0000
 Quadrupole moment (field-independent basis, Debye-Ang):
   XX=            -22.6106   YY=            -23.1426   ZZ=            -44.6695
   XY=              0.0000   XZ=              0.0000   YZ=              0.0000

 802\CCSD=-300.1175078\CCSD(T)=-300.2257536\RMSD=8.249e-09\PG=D*H [C*(O
 Normal termination of Gaussian 16 at Sat Jan 14 20:00:38 2023.
