 Gaussian 16, Revision A.03,
 Gaussian 16:  ES64L-G16RevA.03 25-Dec-2016

 ---------------------------------------------------------------
 #p ROCCSD(T)/cc-pVTZ Guess=Read SCF=(VeryTight,CDIIS,VShift=10)
 ---------------------------------------------------------------

 ---------
 O2_O2_177
 ---------
 Symbolic Z-matrix:
 Charge = -1 Multiplicity = 2

                         Standard orientation:
 ---------------------------------------------------------------------
 Center     Atomic      Atomic             Coordinates (Angstroms)
 Number     Number       Type             X           Y           Z
 ---------------------------------------------------------------------
      1          8           0        0.000000    0.000000    2.045610
      2          8           0        0.000000    0.000000    3.397990
      3          8           0        0.000000    0.000000   -3.397990
      4          8           0        0.000000    0.000000   -2.045610
 ---------------------------------------------------------------------

 SCF Done:  E(ROHF) =  -299.131720525     A.U. after    8 cycles
 E2 =    -0.1045646313D+01 EUMP2 =    -0.30017736683867D+03
 CCSD(T)
 CCSD(T)= -0.30018303315D+03

 Unable to determine electronic state:  an orbital has unidentified symmetry.
 Alpha  occ. eigenvalues --  -20.47965 -20.47964 -20.46763 -20.46763  -1.29371
 Alpha  occ. eigenvalues --   -1.29359  -0.91377  -0.91291  -0.46691  -0.46678
 Alpha  occ. eigenvalues --   -0.44148  -0.43984  -0.41583  -0.41218  -0.25514
 Alpha  occ. eigenvalues --   -0.25483  -0.07678
 Alpha virt. eigenvalues --    0.02510   0.49364   0.52201   0.86892   0.92658
 Alpha virt. eigenvalues --    0.93318   0.93453   0.93575   0.93712   0.95203
 Alpha virt. eigenvalues --    1.02185   1.02386   1.02600   1.03165   1.03360

 Mulliken charges and spin densities:
               1          2
     1  O   -0.210769   0.265124
     2  O   -0.289231   0.234876
     3  O   -0.289231   0.234876
     4  O   -0.210769   0.265124
 Sum of Mulliken charges =  -1.00000   1.00000

 Dipole moment (field-independent basis, Debye):
    X=             -0.0000    Y=              0.0000    Z=             -0.0000  Tot=              0.0000
 Quadrupole moment (field-independent basis, Debye-Ang):
   XX=            -21.4488   YY=            -23.7647   ZZ=            -63.8488
   XY=              0.0000   XZ=              0.0000   YZ=              0.0000

 1131\CCSD=-300.1283865\CCSD(T)=-300.1830332\RMSD=1.862e-09\PG=D*H [C*(
 Normal termination of Gaussian 16 at Sat Jan 14 23:42:42 2023.
