 Gaussian 16, Revision A.03,
 Gaussian 16:  ES64L-G16RevA.03 25-Dec-2016

 ---------------------------------------------------------------
 #p ROCCSD(T)/cc-pVTZ Guess=Read SCF=(VeryTight,CDIIS,VShift=10)
 ---------------------------------------------------------------

 --------
 O2_O2_52
 --------
 Symbolic Z-matrix:
 Charge = -1 Multiplicity = 2

                         Standard orientation:
 ---------------------------------------------------------------------
 Center     Atomic      Atomic             Coordinates (Angstroms)
 Number     Number       Type             X           Y           Z
 ---------------------------------------------------------------------
      1          8           0        0.000000    0.000000    1.160699
      2          8           0        0.000000    0.000000    2.513079
      3          8           0        0.000000    0.000000   -2.513079
      4          8           0        0.000000    0.000000   -1.160699
 ---------------------------------------------------------------------

 SCF Done:  E(ROHF) =  -298.999887756     A.U. after   12 cycles
 E2 =    -0.1406079328D+01 EUMP2 =    -0.30040596708465D+03
 CCSD(T)
 CCSD(T)= -0.30023095648D+03

 Unable to determine electronic state:  an orbital has unidentified symmetry.
 Alpha  occ. eigenvalues --  -20.50412 -20.50410 -20.44152 -20.44152  -1.29003
 Alpha  occ. eigenvalues --   -1.28360  -0.91715  -0.88838  -0.48082  -0.47129
 Alpha  occ. eigenvalues --   -0.45558  -0.40052  -0.39780  -0.37608  -0.26357
 Alpha  occ. eigenvalues --   -0.25233  -0.08418
 Alpha virt. eigenvalues --    0.09540   0.50731   0.57938   0.89949   0.91822
 Alpha virt. eigenvalues --    0.92447   0.94425   0.95921   0.97611   0.99931
 Alpha virt. eigenvalues --    1.01886   1.03177   1.13018   1.13149   1.14143

 Mulliken charges and spin densities:
               1          2
     1  O   -0.134512   0.330979
     2  O   -0.365488   0.169021
     3  O   -0.365488   0.169021
     4  O   -0.134512   0.330979
 Sum of Mulliken charges =  -1.00000   1.00000

 Dipole moment (field-independent basis, Debye):
    X=             -0.0000    Y=              0.0000    Z=             -0.0000  Tot=              0.0000
 Quadrupole moment (field-independent basis, Debye-Ang):
   XX=            -22.5844   YY=            -23.1455   ZZ=            -46.6306
   XY=              0.0000   XZ=              0.0000   YZ=              0.0000

 43037\CCSD=-300.111179\CCSD(T)=-300.2309565\RMSD=8.995e-10\PG=D*H [C*(
 Normal termination of Gaussian 16 at Sat Jan 14 20:41:26 2023.
