 Gaussian 16, Revision A.03,
 Gaussian 16:  ES64L-G16RevA.03 25-Dec-2016

 ---------------------------------------------------------------
 #p ROCCSD(T)/cc-pVTZ Guess=Read SCF=(VeryTight,CDIIS,VShift=10)
 ---------------------------------------------------------------

 ---------
 O2_O2_139
 ---------
 Symbolic Z-matrix:
 Charge = -1 Multiplicity = 2

                         Standard orientation:
 ---------------------------------------------------------------------
 Center     Atomic      Atomic             Coordinates (Angstroms)
 Number     Number       Type             X           Y           Z
 ---------------------------------------------------------------------
      1          8           0        0.000000    0.000000    1.776597
      2          8           0        0.000000    0.000000    3.128977
      3          8           0        0.000000    0.000000   -3.128977
      4          8           0        0.000000    0.000000   -1.776597
 ---------------------------------------------------------------------

 SCF Done:  E(ROHF) =  -299.132755065     A.U. after    8 cycles
 E2 =    -0.1044773444D+01 EUMP2 =    -0.30017752850895D+03
 CCSD(T)
 CCSD(T)= -0.30018432970D+03

 Unable to determine electronic state:  an orbital has unidentified symmetry.
 Alpha  occ. eigenvalues --  -20.47607 -20.47607 -20.46102 -20.46102  -1.28871
 Alpha  occ. eigenvalues --   -1.28840  -0.90904  -0.90698  -0.46202  -0.46155
 Alpha  occ. eigenvalues --   -0.43771  -0.43273  -0.41151  -0.40615  -0.25035
 Alpha  occ. eigenvalues --   -0.24922  -0.07812
 Alpha virt. eigenvalues --    0.03743   0.48557   0.53930   0.83878   0.93181
 Alpha virt. eigenvalues --    0.93437   0.93559   0.94357   0.94490   0.94855
 Alpha virt. eigenvalues --    1.02009   1.02246   1.04767   1.04936   1.12578

 Mulliken charges and spin densities:
               1          2
     1  O   -0.201970   0.267737
     2  O   -0.298030   0.232263
     3  O   -0.298030   0.232263
     4  O   -0.201970   0.267737
 Sum of Mulliken charges =  -1.00000   1.00000

 Dipole moment (field-independent basis, Debye):
    X=             -0.0000    Y=             -0.0000    Z=              0.0000  Tot=              0.0000
 Quadrupole moment (field-independent basis, Debye-Ang):
   XX=            -21.4592   YY=            -23.7675   ZZ=            -57.4602
   XY=              0.0000   XZ=              0.0000   YZ=              0.0000

 38475\CCSD=-300.1296243\CCSD(T)=-300.1843297\RMSD=6.019e-09\PG=D*H [C*
 Normal termination of Gaussian 16 at Sat Jan 14 22:51:04 2023.
