 Gaussian 16, Revision A.03,
 Gaussian 16:  ES64L-G16RevA.03 25-Dec-2016

 ---------------------------------------------------------------
 #p ROCCSD(T)/cc-pVTZ Guess=Read SCF=(VeryTight,CDIIS,VShift=10)
 ---------------------------------------------------------------

 ---------
 O2_O2_172
 ---------
 Symbolic Z-matrix:
 Charge = -1 Multiplicity = 2

                         Standard orientation:
 ---------------------------------------------------------------------
 Center     Atomic      Atomic             Coordinates (Angstroms)
 Number     Number       Type             X           Y           Z
 ---------------------------------------------------------------------
      1          8           0        0.000000    0.000000    2.010214
      2          8           0        0.000000    0.000000    3.362594
      3          8           0        0.000000    0.000000   -3.362594
      4          8           0        0.000000    0.000000   -2.010214
 ---------------------------------------------------------------------

 SCF Done:  E(ROHF) =  -299.131813881     A.U. after    8 cycles
 E2 =    -0.1045539116D+01 EUMP2 =    -0.30017735299626D+03
 CCSD(T)
 CCSD(T)= -0.30018314715D+03

 Unable to determine electronic state:  an orbital has unidentified symmetry.
 Alpha  occ. eigenvalues --  -20.47919 -20.47919 -20.46684 -20.46684  -1.29309
 Alpha  occ. eigenvalues --   -1.29296  -0.91316  -0.91221  -0.46630  -0.46615
 Alpha  occ. eigenvalues --   -0.44095  -0.43905  -0.41528  -0.41146  -0.25454
 Alpha  occ. eigenvalues --   -0.25417  -0.07690
 Alpha virt. eigenvalues --    0.02653   0.49247   0.52410   0.86437   0.92780
 Alpha virt. eigenvalues --    0.93351   0.93486   0.93660   0.93797   0.95130
 Alpha virt. eigenvalues --    1.02375   1.02591   1.03216   1.03310   1.03503

 Mulliken charges and spin densities:
               1          2
     1  O   -0.209758   0.265458
     2  O   -0.290242   0.234542
     3  O   -0.290242   0.234542
     4  O   -0.209758   0.265458
 Sum of Mulliken charges =  -1.00000   1.00000

 Dipole moment (field-independent basis, Debye):
    X=             -0.0000    Y=              0.0000    Z=              0.0000  Tot=              0.0000
 Quadrupole moment (field-independent basis, Debye-Ang):
   XX=            -21.4497   YY=            -23.7650   ZZ=            -62.9655
   XY=              0.0000   XZ=              0.0000   YZ=              0.0000

 2364\CCSD=-300.1284963\CCSD(T)=-300.1831472\RMSD=2.112e-09\PG=D*H [C*(
 Normal termination of Gaussian 16 at Sat Jan 14 23:36:10 2023.
