 Gaussian 16, Revision A.03,
 Gaussian 16:  ES64L-G16RevA.03 25-Dec-2016

 ---------------------------------------------------------------
 #p ROCCSD(T)/cc-pVTZ Guess=Read SCF=(VeryTight,CDIIS,VShift=10)
 ---------------------------------------------------------------

 ---------
 O2_O2_124
 ---------
 Symbolic Z-matrix:
 Charge = -1 Multiplicity = 2

                         Standard orientation:
 ---------------------------------------------------------------------
 Center     Atomic      Atomic             Coordinates (Angstroms)
 Number     Number       Type             X           Y           Z
 ---------------------------------------------------------------------
      1          8           0        0.000000    0.000000    1.670408
      2          8           0        0.000000    0.000000    3.022788
      3          8           0        0.000000    0.000000   -3.022788
      4          8           0        0.000000    0.000000   -1.670408
 ---------------------------------------------------------------------

 SCF Done:  E(ROHF) =  -299.133436797     A.U. after    8 cycles
 E2 =    -0.1044371454D+01 EUMP2 =    -0.30017780825094D+03
 CCSD(T)
 CCSD(T)= -0.30018519235D+03

 Unable to determine electronic state:  an orbital has unidentified symmetry.
 Alpha  occ. eigenvalues --  -20.47460 -20.47459 -20.45797 -20.45797  -1.28652
 Alpha  occ. eigenvalues --   -1.28604  -0.90716  -0.90407  -0.45993  -0.45914
 Alpha  occ. eigenvalues --   -0.43658  -0.42897  -0.40969  -0.40329  -0.24836
 Alpha  occ. eigenvalues --   -0.24655  -0.07902
 Alpha virt. eigenvalues --    0.04343   0.48548   0.54670   0.83838   0.93144
 Alpha virt. eigenvalues --    0.93347   0.93455   0.94756   0.94842   0.94883
 Alpha virt. eigenvalues --    1.01664   1.01915   1.05831   1.05981   1.13173

 Mulliken charges and spin densities:
               1          2
     1  O   -0.197584   0.268757
     2  O   -0.302416   0.231243
     3  O   -0.302416   0.231243
     4  O   -0.197584   0.268757
 Sum of Mulliken charges =  -1.00000   1.00000

 Dipole moment (field-independent basis, Debye):
    X=             -0.0000    Y=              0.0000    Z=             -0.0000  Tot=              0.0000
 Quadrupole moment (field-independent basis, Debye-Ang):
   XX=            -21.4663   YY=            -23.7688   ZZ=            -55.1478
   XY=              0.0000   XZ=              0.0000   YZ=              0.0000

 93629\CCSD=-300.1304462\CCSD(T)=-300.1851924\RMSD=8.910e-09\PG=D*H [C*
 Normal termination of Gaussian 16 at Sat Jan 14 22:30:57 2023.
