 Gaussian 16, Revision A.03,
 Gaussian 16:  ES64L-G16RevA.03 25-Dec-2016

 ---------------------------------------------------------------
 #p ROCCSD(T)/cc-pVTZ Guess=Read SCF=(VeryTight,CDIIS,VShift=10)
 ---------------------------------------------------------------

 --------
 O2_O2_80
 --------
 Symbolic Z-matrix:
 Charge = -1 Multiplicity = 2

                         Standard orientation:
 ---------------------------------------------------------------------
 Center     Atomic      Atomic             Coordinates (Angstroms)
 Number     Number       Type             X           Y           Z
 ---------------------------------------------------------------------
      1          8           0        0.000000    0.000000    1.358919
      2          8           0        0.000000    0.000000    2.711299
      3          8           0        0.000000    0.000000   -2.711299
      4          8           0        0.000000    0.000000   -1.358919
 ---------------------------------------------------------------------

 SCF Done:  E(ROHF) =  -298.978240234     A.U. after   11 cycles
 E2 =    -0.1506813326D+01 EUMP2 =    -0.30048505356069D+03
 CCSD(T)
 CCSD(T)= -0.30022851385D+03

 Unable to determine electronic state:  an orbital has unidentified symmetry.
 Alpha  occ. eigenvalues --  -20.49931 -20.49930 -20.45438 -20.45438  -1.29124
 Alpha  occ. eigenvalues --   -1.28903  -0.91276  -0.90118  -0.48062  -0.47701
 Alpha  occ. eigenvalues --   -0.44636  -0.42088  -0.39781  -0.38501  -0.26625
 Alpha  occ. eigenvalues --   -0.26147  -0.07545
 Alpha virt. eigenvalues --    0.07482   0.49499   0.56142   0.90664   0.90875
 Alpha virt. eigenvalues --    0.92251   0.92855   0.94854   0.95000   0.96733
 Alpha virt. eigenvalues --    0.99661   1.01692   1.09316   1.11466   1.13075

 Mulliken charges and spin densities:
               1          2
     1  O   -0.164255   0.313925
     2  O   -0.335745   0.186075
     3  O   -0.335745   0.186075
     4  O   -0.164255   0.313925
 Sum of Mulliken charges =  -1.00000   1.00000

 Dipole moment (field-independent basis, Debye):
    X=             -0.0000    Y=              0.0000    Z=             -0.0000  Tot=              0.0000
 Quadrupole moment (field-independent basis, Debye-Ang):
   XX=            -22.5275   YY=            -23.1174   ZZ=            -49.6807
   XY=              0.0000   XZ=              0.0000   YZ=              0.0000

 4709\CCSD=-300.1000906\CCSD(T)=-300.2285138\RMSD=9.363e-09\PG=D*H [C*(
 Normal termination of Gaussian 16 at Sat Jan 14 21:23:26 2023.
