 Gaussian 16, Revision A.03,
 Gaussian 16:  ES64L-G16RevA.03 25-Dec-2016

 ---------------------------------------------------------------
 #p ROCCSD(T)/cc-pVTZ Guess=Read SCF=(VeryTight,CDIIS,VShift=10)
 ---------------------------------------------------------------

 ---------
 O2_O2_266
 ---------
 Symbolic Z-matrix:
 Charge = -1 Multiplicity = 2

                         Standard orientation:
 ---------------------------------------------------------------------
 Center     Atomic      Atomic             Coordinates (Angstroms)
 Number     Number       Type             X           Y           Z
 ---------------------------------------------------------------------
      1          8           0        0.000000    0.000000    2.675667
      2          8           0        0.000000    0.000000    4.028047
      3          8           0        0.000000    0.000000   -4.028047
      4          8           0        0.000000    0.000000   -2.675667
 ---------------------------------------------------------------------

 SCF Done:  E(ROHF) =  -299.131044513     A.U. after    8 cycles
 E2 =    -0.1047211378D+01 EUMP2 =    -0.30017825589085D+03
 CCSD(T)
 CCSD(T)= -0.30018225415D+03

 Unable to determine electronic state:  an orbital has unidentified symmetry.
 Alpha  occ. eigenvalues --  -20.48678 -20.48678 -20.47893 -20.47893  -1.30277
 Alpha  occ. eigenvalues --   -1.30275  -0.92285  -0.92258  -0.47594  -0.47593
 Alpha  occ. eigenvalues --   -0.45023  -0.45015  -0.42404  -0.42221  -0.26426
 Alpha  occ. eigenvalues --   -0.26425  -0.07575
 Alpha virt. eigenvalues --    0.00532   0.49831   0.49977   0.89755   0.90065
 Alpha virt. eigenvalues --    0.92557   0.92562   0.92695   0.92699   0.95918
 Alpha virt. eigenvalues --    0.96125   1.01832   1.01846   1.02038   1.02052

 Mulliken charges and spin densities:
               1          2
     1  O   -0.223971   0.260277
     2  O   -0.276029   0.239723
     3  O   -0.276029   0.239723
     4  O   -0.223971   0.260277
 Sum of Mulliken charges =  -1.00000   1.00000

 Dipole moment (field-independent basis, Debye):
    X=             -0.0000    Y=              0.0000    Z=             -0.0000  Tot=              0.0000
 Quadrupole moment (field-independent basis, Debye-Ang):
   XX=            -21.4420   YY=            -23.7611   ZZ=            -81.6804
   XY=              0.0000   XZ=              0.0000   YZ=              0.0000

 361745\CCSD=-300.1276133\CCSD(T)=-300.1822542\RMSD=1.258e-09\PG=D*H [C
 Normal termination of Gaussian 16 at Sun Jan 15 01:41:46 2023.
