 Gaussian 16, Revision A.03,
 Gaussian 16:  ES64L-G16RevA.03 25-Dec-2016

 ---------------------------------------------------------------
 #p ROCCSD(T)/cc-pVTZ Guess=Read SCF=(VeryTight,CDIIS,VShift=10)
 ---------------------------------------------------------------

 ---------
 O2_O2_165
 ---------
 Symbolic Z-matrix:
 Charge = -1 Multiplicity = 2

                         Standard orientation:
 ---------------------------------------------------------------------
 Center     Atomic      Atomic             Coordinates (Angstroms)
 Number     Number       Type             X           Y           Z
 ---------------------------------------------------------------------
      1          8           0        0.000000    0.000000    1.960659
      2          8           0        0.000000    0.000000    3.313039
      3          8           0        0.000000    0.000000   -3.313039
      4          8           0        0.000000    0.000000   -1.960659
 ---------------------------------------------------------------------

 SCF Done:  E(ROHF) =  -299.131963085     A.U. after    8 cycles
 E2 =    -0.1045385798D+01 EUMP2 =    -0.30017734888380D+03
 CCSD(T)
 CCSD(T)= -0.30018333133D+03

 Unable to determine electronic state:  an orbital has unidentified symmetry.
 Alpha  occ. eigenvalues --  -20.47855 -20.47854 -20.46569 -20.46569  -1.29221
 Alpha  occ. eigenvalues --   -1.29206  -0.91231  -0.91121  -0.46543  -0.46524
 Alpha  occ. eigenvalues --   -0.44022  -0.43787  -0.41451  -0.41043  -0.25368
 Alpha  occ. eigenvalues --   -0.25321  -0.07710
 Alpha virt. eigenvalues --    0.02863   0.49076   0.52714   0.85782   0.92923
 Alpha virt. eigenvalues --    0.93391   0.93524   0.93787   0.93924   0.95040
 Alpha virt. eigenvalues --    1.02342   1.02562   1.03541   1.03730   1.04872

 Mulliken charges and spin densities:
               1          2
     1  O   -0.208277   0.265933
     2  O   -0.291723   0.234067
     3  O   -0.291723   0.234067
     4  O   -0.208277   0.265933
 Sum of Mulliken charges =  -1.00000   1.00000

 Dipole moment (field-independent basis, Debye):
    X=             -0.0000    Y=              0.0000    Z=             -0.0000  Tot=              0.0000
 Quadrupole moment (field-independent basis, Debye-Ang):
   XX=            -21.4512   YY=            -23.7655   ZZ=            -61.7504
   XY=              0.0000   XZ=              0.0000   YZ=              0.0000

 374333\CCSD=-300.128673\CCSD(T)=-300.1833313\RMSD=2.605e-09\PG=D*H [C*
 Normal termination of Gaussian 16 at Sat Jan 14 23:26:49 2023.
