 Gaussian 16, Revision A.03,
 Gaussian 16:  ES64L-G16RevA.03 25-Dec-2016

 ---------------------------------------------------------------
 #p ROCCSD(T)/cc-pVTZ Guess=Read SCF=(VeryTight,CDIIS,VShift=10)
 ---------------------------------------------------------------

 ---------
 O2_O2_207
 ---------
 Symbolic Z-matrix:
 Charge = -1 Multiplicity = 2

                         Standard orientation:
 ---------------------------------------------------------------------
 Center     Atomic      Atomic             Coordinates (Angstroms)
 Number     Number       Type             X           Y           Z
 ---------------------------------------------------------------------
      1          8           0        0.000000    0.000000    2.257989
      2          8           0        0.000000    0.000000    3.610369
      3          8           0        0.000000    0.000000   -3.610369
      4          8           0        0.000000    0.000000   -2.257989
 ---------------------------------------------------------------------

 SCF Done:  E(ROHF) =  -299.131338639     A.U. after    8 cycles
 E2 =    -0.1046248370D+01 EUMP2 =    -0.30017758700895D+03
 CCSD(T)
 CCSD(T)= -0.30018258086D+03

 Unable to determine electronic state:  an orbital has unidentified symmetry.
 Alpha  occ. eigenvalues --  -20.48227 -20.48227 -20.47200 -20.47199  -1.29714
 Alpha  occ. eigenvalues --   -1.29708  -0.91718  -0.91667  -0.47032  -0.47028
 Alpha  occ. eigenvalues --   -0.44463  -0.44399  -0.41889  -0.41607  -0.25857
 Alpha  occ. eigenvalues --   -0.25847  -0.07624
 Alpha virt. eigenvalues --    0.01735   0.49849   0.51133   0.88919   0.91660
 Alpha virt. eigenvalues --    0.93072   0.93150   0.93210   0.93288   0.95699
 Alpha virt. eigenvalues --    0.98248   1.02296   1.02504   1.02531   1.02733

 Mulliken charges and spin densities:
               1          2
     1  O   -0.216119   0.263244
     2  O   -0.283881   0.236756
     3  O   -0.283881   0.236756
     4  O   -0.216119   0.263244
 Sum of Mulliken charges =  -1.00000   1.00000

 Dipole moment (field-independent basis, Debye):
    X=             -0.0000    Y=              0.0000    Z=              0.0000  Tot=              0.0000
 Quadrupole moment (field-independent basis, Debye-Ang):
   XX=            -21.4450   YY=            -23.7631   ZZ=            -69.4143
   XY=              0.0000   XZ=              0.0000   YZ=              0.0000

 032\CCSD=-300.1279453\CCSD(T)=-300.1825809\RMSD=1.546e-09\PG=D*H [C*(O
 Normal termination of Gaussian 16 at Sun Jan 15 00:22:40 2023.
