 Gaussian 16, Revision A.03,
 Gaussian 16:  ES64L-G16RevA.03 25-Dec-2016

 ---------------------------------------------------------------
 #p ROCCSD(T)/cc-pVTZ Guess=Read SCF=(VeryTight,CDIIS,VShift=10)
 ---------------------------------------------------------------

 ---------
 O2_O2_117
 ---------
 Symbolic Z-matrix:
 Charge = -1 Multiplicity = 2

                         Standard orientation:
 ---------------------------------------------------------------------
 Center     Atomic      Atomic             Coordinates (Angstroms)
 Number     Number       Type             X           Y           Z
 ---------------------------------------------------------------------
      1          8           0        0.000000    0.000000    1.620853
      2          8           0        0.000000    0.000000    2.973233
      3          8           0        0.000000    0.000000   -2.973233
      4          8           0        0.000000    0.000000   -1.620853
 ---------------------------------------------------------------------

 SCF Done:  E(ROHF) =  -298.959289887     A.U. after   11 cycles
 E2 =    -0.1633084543D+01 EUMP2 =    -0.30059237443082D+03
 CCSD(T)
 CCSD(T)= -0.30022654381D+03

 Unable to determine electronic state:  partially filled degenerate orbitals.
 Alpha  occ. eigenvalues --  -20.49674 -20.49673 -20.46588 -20.46588  -1.29505
 Alpha  occ. eigenvalues --   -1.29443  -0.91447  -0.91073  -0.48364  -0.48263
 Alpha  occ. eigenvalues --   -0.44405  -0.43495  -0.40052  -0.39322  -0.27052
 Alpha  occ. eigenvalues --   -0.26948  -0.06950
 Alpha virt. eigenvalues --    0.05606   0.48159   0.54283   0.83489   0.91891
 Alpha virt. eigenvalues --    0.92885   0.93824   0.93830   0.94725   0.95602
 Alpha virt. eigenvalues --    1.00320   1.02457   1.05124   1.07236   1.12858

 Mulliken charges and spin densities:
               1          2
     1  O   -0.186283   0.298136
     2  O   -0.313717   0.201864
     3  O   -0.313717   0.201864
     4  O   -0.186283   0.298136
 Sum of Mulliken charges =  -1.00000   1.00000

 Dipole moment (field-independent basis, Debye):
    X=             -0.0000    Y=              0.0000    Z=             -0.0000  Tot=              0.0000
 Quadrupole moment (field-independent basis, Debye-Ang):
   XX=            -22.4720   YY=            -23.0881   ZZ=            -54.6409
   XY=              0.0000   XZ=              0.0000   YZ=              0.0000

 651409\CCSD=-300.0906033\CCSD(T)=-300.2265438\RMSD=5.760e-09\PG=D*H [C
 Normal termination of Gaussian 16 at Sat Jan 14 22:21:06 2023.
