 Gaussian 16, Revision A.03,
 Gaussian 16:  ES64L-G16RevA.03 25-Dec-2016

 ---------------------------------------------------------------
 #p ROCCSD(T)/cc-pVTZ Guess=Read SCF=(VeryTight,CDIIS,VShift=10)
 ---------------------------------------------------------------

 ---------
 O2_O2_255
 ---------
 Symbolic Z-matrix:
 Charge = -1 Multiplicity = 2

                         Standard orientation:
 ---------------------------------------------------------------------
 Center     Atomic      Atomic             Coordinates (Angstroms)
 Number     Number       Type             X           Y           Z
 ---------------------------------------------------------------------
      1          8           0        0.000000    0.000000    2.597795
      2          8           0        0.000000    0.000000    3.950175
      3          8           0        0.000000    0.000000   -3.950175
      4          8           0        0.000000    0.000000   -2.597795
 ---------------------------------------------------------------------

 SCF Done:  E(ROHF) =  -299.131077651     A.U. after    8 cycles
 E2 =    -0.1047052653D+01 EUMP2 =    -0.30017813030382D+03
 CCSD(T)
 CCSD(T)= -0.30018228949D+03

 Unable to determine electronic state:  an orbital has unidentified symmetry.
 Alpha  occ. eigenvalues --  -20.48601 -20.48601 -20.47778 -20.47778  -1.30183
 Alpha  occ. eigenvalues --   -1.30180  -0.92190  -0.92160  -0.47499  -0.47498
 Alpha  occ. eigenvalues --   -0.44927  -0.44915  -0.42316  -0.42119  -0.26330
 Alpha  occ. eigenvalues --   -0.26328  -0.07581
 Alpha virt. eigenvalues --    0.00731   0.49891   0.50122   0.89763   0.90257
 Alpha virt. eigenvalues --    0.92648   0.92657   0.92786   0.92794   0.95961
 Alpha virt. eigenvalues --    0.96308   1.01923   1.01948   1.02129   1.02153

 Mulliken charges and spin densities:
               1          2
     1  O   -0.222722   0.260758
     2  O   -0.277278   0.239242
     3  O   -0.277278   0.239242
     4  O   -0.222722   0.260758
 Sum of Mulliken charges =  -1.00000   1.00000

 Dipole moment (field-independent basis, Debye):
    X=             -0.0000    Y=              0.0000    Z=             -0.0000  Tot=              0.0000
 Quadrupole moment (field-independent basis, Debye-Ang):
   XX=            -21.4423   YY=            -23.7614   ZZ=            -79.2607
   XY=              0.0000   XZ=              0.0000   YZ=              0.0000

 36227\CCSD=-300.1276505\CCSD(T)=-300.1822895\RMSD=1.354e-09\PG=D*H [C*
 Normal termination of Gaussian 16 at Sun Jan 15 01:27:02 2023.
