 Gaussian 16, Revision A.03,
 Gaussian 16:  ES64L-G16RevA.03 25-Dec-2016

 ---------------------------------------------------------------
 #p ROCCSD(T)/cc-pVTZ Guess=Read SCF=(VeryTight,CDIIS,VShift=10)
 ---------------------------------------------------------------

 ---------
 O2_O2_211
 ---------
 Symbolic Z-matrix:
 Charge = -1 Multiplicity = 2

                         Standard orientation:
 ---------------------------------------------------------------------
 Center     Atomic      Atomic             Coordinates (Angstroms)
 Number     Number       Type             X           Y           Z
 ---------------------------------------------------------------------
      1          8           0        0.000000    0.000000    2.286306
      2          8           0        0.000000    0.000000    3.638686
      3          8           0        0.000000    0.000000   -3.638686
      4          8           0        0.000000    0.000000   -2.286306
 ---------------------------------------------------------------------

 SCF Done:  E(ROHF) =  -299.131305130     A.U. after    8 cycles
 E2 =    -0.1046322938D+01 EUMP2 =    -0.30017762806789D+03
 CCSD(T)
 CCSD(T)= -0.30018254252D+03

 Unable to determine electronic state:  an orbital has unidentified symmetry.
 Alpha  occ. eigenvalues --  -20.48261 -20.48261 -20.47253 -20.47253  -1.29757
 Alpha  occ. eigenvalues --   -1.29751  -0.91761  -0.91712  -0.47074  -0.47071
 Alpha  occ. eigenvalues --   -0.44504  -0.44448  -0.41927  -0.41655  -0.25899
 Alpha  occ. eigenvalues --   -0.25891  -0.07619
 Alpha virt. eigenvalues --    0.01641   0.49882   0.51018   0.89082   0.91513
 Alpha virt. eigenvalues --    0.93037   0.93102   0.93174   0.93240   0.95755
 Alpha virt. eigenvalues --    0.97950   1.02271   1.02468   1.02478   1.02671

 Mulliken charges and spin densities:
               1          2
     1  O   -0.216752   0.263012
     2  O   -0.283248   0.236988
     3  O   -0.283248   0.236988
     4  O   -0.216752   0.263012
 Sum of Mulliken charges =  -1.00000   1.00000

 Dipole moment (field-independent basis, Debye):
    X=             -0.0000    Y=             -0.0000    Z=             -0.0000  Tot=              0.0000
 Quadrupole moment (field-independent basis, Debye-Ang):
   XX=            -21.4447   YY=            -23.7630   ZZ=            -70.1906
   XY=              0.0000   XZ=              0.0000   YZ=              0.0000

 65572\CCSD=-300.1279073\CCSD(T)=-300.1825425\RMSD=1.561e-09\PG=D*H [C*
 Normal termination of Gaussian 16 at Sun Jan 15 00:27:54 2023.
