 Gaussian 16, Revision A.03,
 Gaussian 16:  ES64L-G16RevA.03 25-Dec-2016

 ---------------------------------------------------------------
 #p ROCCSD(T)/cc-pVTZ Guess=Read SCF=(VeryTight,CDIIS,VShift=10)
 ---------------------------------------------------------------

 ---------
 O2_O2_238
 ---------
 Symbolic Z-matrix:
 Charge = -1 Multiplicity = 2

                         Standard orientation:
 ---------------------------------------------------------------------
 Center     Atomic      Atomic             Coordinates (Angstroms)
 Number     Number       Type             X           Y           Z
 ---------------------------------------------------------------------
      1          8           0        0.000000    0.000000    2.477447
      2          8           0        0.000000    0.000000    3.829827
      3          8           0        0.000000    0.000000   -3.829827
      4          8           0        0.000000    0.000000   -2.477447
 ---------------------------------------------------------------------

 SCF Done:  E(ROHF) =  -299.131142801     A.U. after    8 cycles
 E2 =    -0.1046789697D+01 EUMP2 =    -0.30017793249747D+03
 CCSD(T)
 CCSD(T)= -0.30018236038D+03

 Unable to determine electronic state:  an orbital has unidentified symmetry.
 Alpha  occ. eigenvalues --  -20.48476 -20.48476 -20.47588 -20.47588  -1.30027
 Alpha  occ. eigenvalues --   -1.30024  -0.92033  -0.91998  -0.47344  -0.47343
 Alpha  occ. eigenvalues --   -0.44770  -0.44748  -0.42173  -0.41951  -0.26172
 Alpha  occ. eigenvalues --   -0.26170  -0.07593
 Alpha virt. eigenvalues --    0.01059   0.49947   0.50397   0.89678   0.90644
 Alpha virt. eigenvalues --    0.92795   0.92814   0.92932   0.92952   0.95967
 Alpha virt. eigenvalues --    0.96706   1.02064   1.02122   1.02270   1.02327

 Mulliken charges and spin densities:
               1          2
     1  O   -0.220614   0.261564
     2  O   -0.279386   0.238436
     3  O   -0.279386   0.238436
     4  O   -0.220614   0.261564
 Sum of Mulliken charges =  -1.00000   1.00000

 Dipole moment (field-independent basis, Debye):
    X=             -0.0000    Y=             -0.0000    Z=              0.0000  Tot=              0.0000
 Quadrupole moment (field-independent basis, Debye-Ang):
   XX=            -21.4430   YY=            -23.7619   ZZ=            -75.6409
   XY=              0.0000   XZ=              0.0000   YZ=              0.0000

 363261\CCSD=-300.1277238\CCSD(T)=-300.1823604\RMSD=1.495e-09\PG=D*H [C
 Normal termination of Gaussian 16 at Sun Jan 15 01:04:05 2023.
