 Gaussian 16, Revision A.03,
 Gaussian 16:  ES64L-G16RevA.03 25-Dec-2016

 ---------------------------------------------------------------
 #p ROCCSD(T)/cc-pVTZ Guess=Read SCF=(VeryTight,CDIIS,VShift=10)
 ---------------------------------------------------------------

 --------
 O2_O2_74
 --------
 Symbolic Z-matrix:
 Charge = -1 Multiplicity = 2

                         Standard orientation:
 ---------------------------------------------------------------------
 Center     Atomic      Atomic             Coordinates (Angstroms)
 Number     Number       Type             X           Y           Z
 ---------------------------------------------------------------------
      1          8           0        0.000000    0.000000    1.316443
      2          8           0        0.000000    0.000000    2.668823
      3          8           0        0.000000    0.000000   -2.668823
      4          8           0        0.000000    0.000000   -1.316443
 ---------------------------------------------------------------------

 SCF Done:  E(ROHF) =  -298.982358051     A.U. after   12 cycles
 E2 =    -0.1485512165D+01 EUMP2 =    -0.30046787021534D+03
 CCSD(T)
 CCSD(T)= -0.30022906816D+03

 Unable to determine electronic state:  an orbital has unidentified symmetry.
 Alpha  occ. eigenvalues --  -20.50013 -20.50011 -20.45203 -20.45203  -1.29078
 Alpha  occ. eigenvalues --   -1.28802  -0.91305  -0.89902  -0.48038  -0.47594
 Alpha  occ. eigenvalues --   -0.44759  -0.41753  -0.39758  -0.38336  -0.26562
 Alpha  occ. eigenvalues --   -0.25982  -0.07692
 Alpha virt. eigenvalues --    0.07863   0.49775   0.56484   0.90440   0.92138
 Alpha virt. eigenvalues --    0.92690   0.92928   0.94944   0.95195   0.96920
 Alpha virt. eigenvalues --    0.99646   1.01657   1.10132   1.12290   1.13083

 Mulliken charges and spin densities:
               1          2
     1  O   -0.159186   0.317184
     2  O   -0.340814   0.182816
     3  O   -0.340814   0.182816
     4  O   -0.159186   0.317184
 Sum of Mulliken charges =  -1.00000   1.00000

 Dipole moment (field-independent basis, Debye):
    X=             -0.0000    Y=             -0.0000    Z=              0.0000  Tot=              0.0000
 Quadrupole moment (field-independent basis, Debye-Ang):
   XX=            -22.5392   YY=            -23.1235   ZZ=            -48.9653
   XY=              0.0000   XZ=              0.0000   YZ=              0.0000

 8186\CCSD=-300.1022405\CCSD(T)=-300.2290682\RMSD=3.653e-10\PG=D*H [C*(
 Normal termination of Gaussian 16 at Sat Jan 14 21:14:38 2023.
