 Gaussian 16, Revision A.03,
 Gaussian 16:  ES64L-G16RevA.03 25-Dec-2016

 ---------------------------------------------------------------
 #p ROCCSD(T)/cc-pVTZ Guess=Read SCF=(VeryTight,CDIIS,VShift=10)
 ---------------------------------------------------------------

 ---------
 O2_O2_153
 ---------
 Symbolic Z-matrix:
 Charge = -1 Multiplicity = 2

                         Standard orientation:
 ---------------------------------------------------------------------
 Center     Atomic      Atomic             Coordinates (Angstroms)
 Number     Number       Type             X           Y           Z
 ---------------------------------------------------------------------
      1          8           0        0.000000    0.000000    1.875707
      2          8           0        0.000000    0.000000    3.228087
      3          8           0        0.000000    0.000000   -3.228087
      4          8           0        0.000000    0.000000   -1.875707
 ---------------------------------------------------------------------

 SCF Done:  E(ROHF) =  -299.132276796     A.U. after    8 cycles
 E2 =    -0.1045113041D+01 EUMP2 =    -0.30017738983771D+03
 CCSD(T)
 CCSD(T)= -0.30018372433D+03

 Unable to determine electronic state:  an orbital has unidentified symmetry.
 Alpha  occ. eigenvalues --  -20.47742 -20.47741 -20.46362 -20.46362  -1.29064
 Alpha  occ. eigenvalues --   -1.29043  -0.91081  -0.90936  -0.46390  -0.46360
 Alpha  occ. eigenvalues --   -0.43901  -0.43567  -0.41315  -0.40854  -0.25217
 Alpha  occ. eigenvalues --   -0.25145  -0.07751
 Alpha virt. eigenvalues --    0.03247   0.48791   0.53262   0.84725   0.93094
 Alpha virt. eigenvalues --    0.93436   0.93566   0.94031   0.94166   0.94925
 Alpha virt. eigenvalues --    1.02232   1.02459   1.04025   1.04207   1.08302

 Mulliken charges and spin densities:
               1          2
     1  O   -0.205537   0.266762
     2  O   -0.294463   0.233238
     3  O   -0.294463   0.233238
     4  O   -0.205537   0.266762
 Sum of Mulliken charges =  -1.00000   1.00000

 Dipole moment (field-independent basis, Debye):
    X=             -0.0000    Y=              0.0000    Z=              0.0000  Tot=              0.0000
 Quadrupole moment (field-independent basis, Debye-Ang):
   XX=            -21.4544   YY=            -23.7664   ZZ=            -59.7263
   XY=              0.0000   XZ=              0.0000   YZ=              0.0000

 378467\CCSD=-300.1290482\CCSD(T)=-300.1837243\RMSD=3.919e-09\PG=D*H [C
 Normal termination of Gaussian 16 at Sat Jan 14 23:10:56 2023.
