 Gaussian 16, Revision A.03,
 Gaussian 16:  ES64L-G16RevA.03 25-Dec-2016

 ---------------------------------------------------------------
 #p ROCCSD(T)/cc-pVTZ Guess=Read SCF=(VeryTight,CDIIS,VShift=10)
 ---------------------------------------------------------------

 ---------
 O2_O2_126
 ---------
 Symbolic Z-matrix:
 Charge = -1 Multiplicity = 2

                         Standard orientation:
 ---------------------------------------------------------------------
 Center     Atomic      Atomic             Coordinates (Angstroms)
 Number     Number       Type             X           Y           Z
 ---------------------------------------------------------------------
      1          8           0        0.000000    0.000000    1.684566
      2          8           0        0.000000    0.000000    3.036946
      3          8           0        0.000000    0.000000   -3.036946
      4          8           0        0.000000    0.000000   -1.684566
 ---------------------------------------------------------------------

 SCF Done:  E(ROHF) =  -299.133334311     A.U. after    8 cycles
 E2 =    -0.1044427854D+01 EUMP2 =    -0.30017776216430D+03
 CCSD(T)
 CCSD(T)= -0.30018506298D+03

 Unable to determine electronic state:  an orbital has unidentified symmetry.
 Alpha  occ. eigenvalues --  -20.47479 -20.47479 -20.45840 -20.45840  -1.28682
 Alpha  occ. eigenvalues --   -1.28637  -0.90741  -0.90448  -0.46022  -0.45947
 Alpha  occ. eigenvalues --   -0.43671  -0.42951  -0.40993  -0.40369  -0.24862
 Alpha  occ. eigenvalues --   -0.24692  -0.07888
 Alpha virt. eigenvalues --    0.04258   0.48531   0.54570   0.83777   0.93157
 Alpha virt. eigenvalues --    0.93366   0.93476   0.94700   0.94828   0.94840
 Alpha virt. eigenvalues --    1.01715   1.01964   1.05671   1.05824   1.13142

 Mulliken charges and spin densities:
               1          2
     1  O   -0.198210   0.268624
     2  O   -0.301790   0.231376
     3  O   -0.301790   0.231376
     4  O   -0.198210   0.268624
 Sum of Mulliken charges =  -1.00000   1.00000

 Dipole moment (field-independent basis, Debye):
    X=             -0.0000    Y=              0.0000    Z=             -0.0000  Tot=              0.0000
 Quadrupole moment (field-independent basis, Debye-Ang):
   XX=            -21.4652   YY=            -23.7686   ZZ=            -55.4492
   XY=              0.0000   XZ=              0.0000   YZ=              0.0000

 3923\CCSD=-300.1303228\CCSD(T)=-300.185063\RMSD=8.457e-09\PG=D*H [C*(O
 Normal termination of Gaussian 16 at Sat Jan 14 22:33:39 2023.
