 Gaussian 16, Revision A.03,
 Gaussian 16:  ES64L-G16RevA.03 25-Dec-2016

 ---------------------------------------------------------------
 #p ROCCSD(T)/cc-pVTZ Guess=Read SCF=(VeryTight,CDIIS,VShift=10)
 ---------------------------------------------------------------

 ---------
 O2_O2_235
 ---------
 Symbolic Z-matrix:
 Charge = -1 Multiplicity = 2

                         Standard orientation:
 ---------------------------------------------------------------------
 Center     Atomic      Atomic             Coordinates (Angstroms)
 Number     Number       Type             X           Y           Z
 ---------------------------------------------------------------------
      1          8           0        0.000000    0.000000    2.456209
      2          8           0        0.000000    0.000000    3.808589
      3          8           0        0.000000    0.000000   -3.808589
      4          8           0        0.000000    0.000000   -2.456209
 ---------------------------------------------------------------------

 SCF Done:  E(ROHF) =  -299.131156612     A.U. after    8 cycles
 E2 =    -0.1046740910D+01 EUMP2 =    -0.30017789752114D+03
 CCSD(T)
 CCSD(T)= -0.30018237559D+03

 Unable to determine electronic state:  an orbital has unidentified symmetry.
 Alpha  occ. eigenvalues --  -20.48453 -20.48453 -20.47553 -20.47553  -1.29999
 Alpha  occ. eigenvalues --   -1.29995  -0.92004  -0.91968  -0.47315  -0.47314
 Alpha  occ. eigenvalues --   -0.44741  -0.44717  -0.42147  -0.41920  -0.26144
 Alpha  occ. eigenvalues --   -0.26140  -0.07595
 Alpha virt. eigenvalues --    0.01120   0.49951   0.50454   0.89645   0.90726
 Alpha virt. eigenvalues --    0.92821   0.92844   0.92959   0.92981   0.95959
 Alpha virt. eigenvalues --    0.96798   1.02089   1.02155   1.02295   1.02360

 Mulliken charges and spin densities:
               1          2
     1  O   -0.220218   0.261715
     2  O   -0.279782   0.238285
     3  O   -0.279782   0.238285
     4  O   -0.220218   0.261715
 Sum of Mulliken charges =  -1.00000   1.00000

 Dipole moment (field-independent basis, Debye):
    X=             -0.0000    Y=              0.0000    Z=             -0.0000  Tot=              0.0000
 Quadrupole moment (field-independent basis, Debye-Ang):
   XX=            -21.4431   YY=            -23.7620   ZZ=            -75.0172
   XY=              0.0000   XZ=              0.0000   YZ=              0.0000

 363465\CCSD=-300.1277394\CCSD(T)=-300.1823756\RMSD=1.515e-09\PG=D*H [C
 Normal termination of Gaussian 16 at Sun Jan 15 00:59:21 2023.
