 Gaussian 16, Revision A.03,
 Gaussian 16:  ES64L-G16RevA.03 25-Dec-2016

 ---------------------------------------------------------------
 #p ROCCSD(T)/cc-pVTZ Guess=Read SCF=(VeryTight,CDIIS,VShift=10)
 ---------------------------------------------------------------

 ---------
 O2_O2_290
 ---------
 Symbolic Z-matrix:
 Charge = -1 Multiplicity = 2

                         Standard orientation:
 ---------------------------------------------------------------------
 Center     Atomic      Atomic             Coordinates (Angstroms)
 Number     Number       Type             X           Y           Z
 ---------------------------------------------------------------------
      1          8           0        0.000000    0.000000    2.845570
      2          8           0        0.000000    0.000000    4.197950
      3          8           0        0.000000    0.000000   -4.197950
      4          8           0        0.000000    0.000000   -2.845570
 ---------------------------------------------------------------------

 SCF Done:  E(ROHF) =  -299.130988272     A.U. after    8 cycles
 E2 =    -0.1047530141D+01 EUMP2 =    -0.30017851841255D+03
 CCSD(T)
 CCSD(T)= -0.30018219587D+03

 Unable to determine electronic state:  an orbital has unidentified symmetry.
 Alpha  occ. eigenvalues --  -20.48837 -20.48836 -20.48125 -20.48125  -1.30470
 Alpha  occ. eigenvalues --   -1.30468  -0.92480  -0.92457  -0.47786  -0.47786
 Alpha  occ. eigenvalues --   -0.45220  -0.45217  -0.42583  -0.42426  -0.26621
 Alpha  occ. eigenvalues --   -0.26620  -0.07564
 Alpha virt. eigenvalues --    0.00130   0.49673   0.49721   0.89649   0.89754
 Alpha virt. eigenvalues --    0.92370   0.92372   0.92507   0.92509   0.95770
 Alpha virt. eigenvalues --    0.95833   1.01642   1.01646   1.01848   1.01852

 Mulliken charges and spin densities:
               1          2
     1  O   -0.226419   0.259327
     2  O   -0.273581   0.240673
     3  O   -0.273581   0.240673
     4  O   -0.226419   0.259327
 Sum of Mulliken charges =  -1.00000   1.00000

 Dipole moment (field-independent basis, Debye):
    X=             -0.0000    Y=             -0.0000    Z=             -0.0000  Tot=              0.0000
 Quadrupole moment (field-independent basis, Debye-Ang):
   XX=            -21.4413   YY=            -23.7606   ZZ=            -87.1701
   XY=              0.0000   XZ=              0.0000   YZ=              0.0000

 0814\CCSD=-300.1275503\CCSD(T)=-300.1821959\RMSD=1.070e-09\PG=D*H [C*(
 Normal termination of Gaussian 16 at Sun Jan 15 02:14:49 2023.
