 Gaussian 16, Revision A.03,
 Gaussian 16:  ES64L-G16RevA.03 25-Dec-2016

 ---------------------------------------------------------------
 #p ROCCSD(T)/cc-pVTZ Guess=Read SCF=(VeryTight,CDIIS,VShift=10)
 ---------------------------------------------------------------

 ---------
 O2_O2_100
 ---------
 Symbolic Z-matrix:
 Charge = -1 Multiplicity = 2

                         Standard orientation:
 ---------------------------------------------------------------------
 Center     Atomic      Atomic             Coordinates (Angstroms)
 Number     Number       Type             X           Y           Z
 ---------------------------------------------------------------------
      1          8           0        0.000000    0.000000    1.500504
      2          8           0        0.000000    0.000000    2.852885
      3          8           0        0.000000    0.000000   -2.852885
      4          8           0        0.000000    0.000000   -1.500504
 ---------------------------------------------------------------------

 SCF Done:  E(ROHF) =  -298.966738057     A.U. after   11 cycles
 E2 =    -0.1576201499D+01 EUMP2 =    -0.30054293955526D+03
 CCSD(T)
 CCSD(T)= -0.30022711560D+03

 Unable to determine electronic state:  an orbital has unidentified symmetry.
 Alpha  occ. eigenvalues --  -20.49744 -20.49743 -20.46112 -20.46112  -1.29316
 Alpha  occ. eigenvalues --   -1.29207  -0.91316  -0.90696  -0.48202  -0.48020
 Alpha  occ. eigenvalues --   -0.44422  -0.42958  -0.39907  -0.38978  -0.26849
 Alpha  occ. eigenvalues --   -0.26617  -0.07168
 Alpha virt. eigenvalues --    0.06382   0.48642   0.55100   0.85684   0.91420
 Alpha virt. eigenvalues --    0.92644   0.93447   0.94355   0.94782   0.96112
 Alpha virt. eigenvalues --    0.99931   1.02027   1.06826   1.08953   1.12991

 Mulliken charges and spin densities:
               1          2
     1  O   -0.177780   0.304544
     2  O   -0.322220   0.195456
     3  O   -0.322220   0.195456
     4  O   -0.177780   0.304544
 Sum of Mulliken charges =  -1.00000   1.00000

 Dipole moment (field-independent basis, Debye):
    X=             -0.0000    Y=              0.0000    Z=              0.0000  Tot=              0.0000
 Quadrupole moment (field-independent basis, Debye-Ang):
   XX=            -22.4938   YY=            -23.0997   ZZ=            -52.2547
   XY=              0.0000   XZ=              0.0000   YZ=              0.0000

 096879\CCSD=-300.0941983\CCSD(T)=-300.2271156\RMSD=7.418e-09\PG=D*H [C
 Normal termination of Gaussian 16 at Sat Jan 14 21:53:37 2023.
