 Gaussian 16, Revision A.03,
 Gaussian 16:  ES64L-G16RevA.03 25-Dec-2016

 ---------------------------------------------------------------
 #p ROCCSD(T)/cc-pVTZ Guess=Read SCF=(VeryTight,CDIIS,VShift=10)
 ---------------------------------------------------------------

 --------
 O2_O2_72
 --------
 Symbolic Z-matrix:
 Charge = -1 Multiplicity = 2

                         Standard orientation:
 ---------------------------------------------------------------------
 Center     Atomic      Atomic             Coordinates (Angstroms)
 Number     Number       Type             X           Y           Z
 ---------------------------------------------------------------------
      1          8           0        0.000000    0.000000    1.302285
      2          8           0        0.000000    0.000000    2.654665
      3          8           0        0.000000    0.000000   -2.654665
      4          8           0        0.000000    0.000000   -1.302285
 ---------------------------------------------------------------------

 SCF Done:  E(ROHF) =  -298.983800862     A.U. after   12 cycles
 E2 =    -0.1478368366D+01 EUMP2 =    -0.30046216922796D+03
 CCSD(T)
 CCSD(T)= -0.30022926118D+03

 Unable to determine electronic state:  an orbital has unidentified symmetry.
 Alpha  occ. eigenvalues --  -20.50042 -20.50041 -20.45121 -20.45121  -1.29064
 Alpha  occ. eigenvalues --   -1.28767  -0.91321  -0.89824  -0.48032  -0.47557
 Alpha  occ. eigenvalues --   -0.44808  -0.41632  -0.39753  -0.38279  -0.26542
 Alpha  occ. eigenvalues --   -0.25924  -0.07745
 Alpha virt. eigenvalues --    0.07996   0.49866   0.56602   0.90370   0.92102
 Alpha virt. eigenvalues --    0.92641   0.93586   0.95056   0.95260   0.96983
 Alpha virt. eigenvalues --    0.99649   1.01654   1.10407   1.12568   1.13083

 Mulliken charges and spin densities:
               1          2
     1  O   -0.157366   0.318318
     2  O   -0.342634   0.181682
     3  O   -0.342634   0.181682
     4  O   -0.157366   0.318318
 Sum of Mulliken charges =  -1.00000   1.00000

 Dipole moment (field-independent basis, Debye):
    X=             -0.0000    Y=             -0.0000    Z=              0.0000  Tot=              0.0000
 Quadrupole moment (field-independent basis, Debye-Ang):
   XX=            -22.5432   YY=            -23.1256   ZZ=            -48.7335
   XY=              0.0000   XZ=              0.0000   YZ=              0.0000

 80631\CCSD=-300.1029943\CCSD(T)=-300.2292612\RMSD=3.371e-10\PG=D*H [C*
 Normal termination of Gaussian 16 at Sat Jan 14 21:11:29 2023.
