 Gaussian 16, Revision A.03,
 Gaussian 16:  ES64L-G16RevA.03 25-Dec-2016

 ---------------------------------------------------------------
 #p ROCCSD(T)/cc-pVTZ Guess=Read SCF=(VeryTight,CDIIS,VShift=10)
 ---------------------------------------------------------------

 ---------
 O2_O2_119
 ---------
 Symbolic Z-matrix:
 Charge = -1 Multiplicity = 2

                         Standard orientation:
 ---------------------------------------------------------------------
 Center     Atomic      Atomic             Coordinates (Angstroms)
 Number     Number       Type             X           Y           Z
 ---------------------------------------------------------------------
      1          8           0        0.000000    0.000000    1.635011
      2          8           0        0.000000    0.000000    2.987391
      3          8           0        0.000000    0.000000   -2.987391
      4          8           0        0.000000    0.000000   -1.635011
 ---------------------------------------------------------------------

 SCF Done:  E(ROHF) =  -299.133709920     A.U. after   18 cycles
 E2 =    -0.1044226279D+01 EUMP2 =    -0.30017793619923D+03
 CCSD(T)
 CCSD(T)= -0.30018553656D+03

 Unable to determine electronic state:  an orbital has unidentified symmetry.
 Alpha  occ. eigenvalues --  -20.47409 -20.47409 -20.45689 -20.45689  -1.28577
 Alpha  occ. eigenvalues --   -1.28521  -0.90656  -0.90299  -0.45922  -0.45828
 Alpha  occ. eigenvalues --   -0.43630  -0.42754  -0.40907  -0.40226  -0.24769
 Alpha  occ. eigenvalues --   -0.24558  -0.07939
 Alpha virt. eigenvalues --    0.04561   0.48615   0.54921   0.84087   0.93104
 Alpha virt. eigenvalues --    0.93292   0.93392   0.94848   0.94898   0.95024
 Alpha virt. eigenvalues --    1.01532   1.01787   1.06257   1.06400   1.13239

 Mulliken charges and spin densities:
               1          2
     1  O   -0.195955   0.269082
     2  O   -0.304045   0.230918
     3  O   -0.304045   0.230918
     4  O   -0.195955   0.269082
 Sum of Mulliken charges =  -1.00000   1.00000

 Dipole moment (field-independent basis, Debye):
    X=             -0.0000    Y=              0.0000    Z=              0.0000  Tot=              0.0000
 Quadrupole moment (field-independent basis, Debye-Ang):
   XX=            -21.4691   YY=            -23.7693   ZZ=            -54.4039
   XY=              0.0000   XZ=              0.0000   YZ=              0.0000

 7161\CCSD=-300.1307749\CCSD(T)=-300.1855366\RMSD=5.328e-09\PG=D*H [C*(
 Normal termination of Gaussian 16 at Sat Jan 14 22:24:05 2023.
