 Gaussian 16, Revision A.03,
 Gaussian 16:  ES64L-G16RevA.03 25-Dec-2016

 ---------------------------------------------------------------
 #p ROCCSD(T)/cc-pVTZ Guess=Read SCF=(VeryTight,CDIIS,VShift=10)
 ---------------------------------------------------------------

 ---------
 O2_O2_274
 ---------
 Symbolic Z-matrix:
 Charge = -1 Multiplicity = 2

                         Standard orientation:
 ---------------------------------------------------------------------
 Center     Atomic      Atomic             Coordinates (Angstroms)
 Number     Number       Type             X           Y           Z
 ---------------------------------------------------------------------
      1          8           0        0.000000    0.000000    2.732301
      2          8           0        0.000000    0.000000    4.084681
      3          8           0        0.000000    0.000000   -4.084681
      4          8           0        0.000000    0.000000   -2.732301
 ---------------------------------------------------------------------

 SCF Done:  E(ROHF) =  -299.131023666     A.U. after    8 cycles
 E2 =    -0.1047321638D+01 EUMP2 =    -0.30017834530373D+03
 CCSD(T)
 CCSD(T)= -0.30018223226D+03

 Unable to determine electronic state:  an orbital has unidentified symmetry.
 Alpha  occ. eigenvalues --  -20.48733 -20.48732 -20.47973 -20.47973  -1.30344
 Alpha  occ. eigenvalues --   -1.30341  -0.92352  -0.92327  -0.47660  -0.47660
 Alpha  occ. eigenvalues --   -0.45091  -0.45085  -0.42465  -0.42292  -0.26493
 Alpha  occ. eigenvalues --   -0.26492  -0.07571
 Alpha virt. eigenvalues --    0.00393   0.49782   0.49884   0.89730   0.89947
 Alpha virt. eigenvalues --    0.92493   0.92496   0.92630   0.92633   0.95874
 Alpha virt. eigenvalues --    0.96015   1.01767   1.01776   1.01973   1.01983

 Mulliken charges and spin densities:
               1          2
     1  O   -0.224827   0.259945
     2  O   -0.275173   0.240055
     3  O   -0.275173   0.240055
     4  O   -0.224827   0.259945
 Sum of Mulliken charges =  -1.00000   1.00000

 Dipole moment (field-independent basis, Debye):
    X=             -0.0000    Y=              0.0000    Z=             -0.0000  Tot=              0.0000
 Quadrupole moment (field-independent basis, Debye-Ang):
   XX=            -21.4417   YY=            -23.7609   ZZ=            -83.4782
   XY=              0.0000   XZ=              0.0000   YZ=              0.0000

 361406\CCSD=-300.1275899\CCSD(T)=-300.1822323\RMSD=1.191e-09\PG=D*H [C
 Normal termination of Gaussian 16 at Sun Jan 15 01:52:28 2023.
