 Gaussian 16, Revision A.03,
 Gaussian 16:  ES64L-G16RevA.03 25-Dec-2016

 ---------------------------------------------------------------
 #p ROCCSD(T)/cc-pVTZ Guess=Read SCF=(VeryTight,CDIIS,VShift=10)
 ---------------------------------------------------------------

 ---------
 O2_O2_223
 ---------
 Symbolic Z-matrix:
 Charge = -1 Multiplicity = 2

                         Standard orientation:
 ---------------------------------------------------------------------
 Center     Atomic      Atomic             Coordinates (Angstroms)
 Number     Number       Type             X           Y           Z
 ---------------------------------------------------------------------
      1          8           0        0.000000    0.000000    2.371258
      2          8           0        0.000000    0.000000    3.723638
      3          8           0        0.000000    0.000000   -3.723638
      4          8           0        0.000000    0.000000   -2.371258
 ---------------------------------------------------------------------

 SCF Done:  E(ROHF) =  -299.131221195     A.U. after    8 cycles
 E2 =    -0.1046538182D+01 EUMP2 =    -0.30017775937667D+03
 CCSD(T)
 CCSD(T)= -0.30018244753D+03

 Unable to determine electronic state:  an orbital has unidentified symmetry.
 Alpha  occ. eigenvalues --  -20.48359 -20.48358 -20.47407 -20.47407  -1.29881
 Alpha  occ. eigenvalues --   -1.29876  -0.91885  -0.91844  -0.47198  -0.47196
 Alpha  occ. eigenvalues --   -0.44624  -0.44588  -0.42040  -0.41791  -0.26024
 Alpha  occ. eigenvalues --   -0.26019  -0.07606
 Alpha virt. eigenvalues --    0.01372   0.49941   0.50710   0.89440   0.91092
 Alpha virt. eigenvalues --    0.92929   0.92967   0.93066   0.93105   0.95887
 Alpha virt. eigenvalues --    0.97263   1.02184   1.02300   1.02391   1.02504

 Mulliken charges and spin densities:
               1          2
     1  O   -0.218553   0.262343
     2  O   -0.281447   0.237657
     3  O   -0.281447   0.237657
     4  O   -0.218553   0.262343
 Sum of Mulliken charges =  -1.00000   1.00000

 Dipole moment (field-independent basis, Debye):
    X=             -0.0000    Y=             -0.0000    Z=              0.0000  Tot=              0.0000
 Quadrupole moment (field-independent basis, Debye-Ang):
   XX=            -21.4438   YY=            -23.7625   ZZ=            -72.5677
   XY=              0.0000   XZ=              0.0000   YZ=              0.0000

 64398\CCSD=-300.1278123\CCSD(T)=-300.1824475\RMSD=1.568e-09\PG=D*H [C*
 Normal termination of Gaussian 16 at Sun Jan 15 00:43:38 2023.
