 Gaussian 16, Revision A.03,
 Gaussian 16:  ES64L-G16RevA.03 25-Dec-2016

 ---------------------------------------------------------------
 #p ROCCSD(T)/cc-pVTZ Guess=Read SCF=(VeryTight,CDIIS,VShift=10)
 ---------------------------------------------------------------

 ---------
 O2_O2_275
 ---------
 Symbolic Z-matrix:
 Charge = -1 Multiplicity = 2

                         Standard orientation:
 ---------------------------------------------------------------------
 Center     Atomic      Atomic             Coordinates (Angstroms)
 Number     Number       Type             X           Y           Z
 ---------------------------------------------------------------------
      1          8           0        0.000000    0.000000    2.739381
      2          8           0        0.000000    0.000000    4.091761
      3          8           0        0.000000    0.000000   -4.091761
      4          8           0        0.000000    0.000000   -2.739381
 ---------------------------------------------------------------------

 SCF Done:  E(ROHF) =  -299.131021224     A.U. after    8 cycles
 E2 =    -0.1047335129D+01 EUMP2 =    -0.30017835635277D+03
 CCSD(T)
 CCSD(T)= -0.30018222971D+03

 Unable to determine electronic state:  an orbital has unidentified symmetry.
 Alpha  occ. eigenvalues --  -20.48739 -20.48739 -20.47983 -20.47983  -1.30352
 Alpha  occ. eigenvalues --   -1.30349  -0.92361  -0.92335  -0.47668  -0.47668
 Alpha  occ. eigenvalues --   -0.45099  -0.45093  -0.42473  -0.42300  -0.26501
 Alpha  occ. eigenvalues --   -0.26500  -0.07570
 Alpha virt. eigenvalues --    0.00376   0.49775   0.49873   0.89726   0.89934
 Alpha virt. eigenvalues --    0.92485   0.92488   0.92622   0.92625   0.95868
 Alpha virt. eigenvalues --    0.96003   1.01759   1.01768   1.01965   1.01974

 Mulliken charges and spin densities:
               1          2
     1  O   -0.224931   0.259905
     2  O   -0.275069   0.240095
     3  O   -0.275069   0.240095
     4  O   -0.224931   0.259905
 Sum of Mulliken charges =  -1.00000   1.00000

 Dipole moment (field-independent basis, Debye):
    X=             -0.0000    Y=              0.0000    Z=             -0.0000  Tot=              0.0000
 Quadrupole moment (field-independent basis, Debye-Ang):
   XX=            -21.4417   YY=            -23.7609   ZZ=            -83.7052
   XY=              0.0000   XZ=              0.0000   YZ=              0.0000

 361366\CCSD=-300.1275872\CCSD(T)=-300.1822297\RMSD=1.183e-09\PG=D*H [C
 Normal termination of Gaussian 16 at Sun Jan 15 01:53:47 2023.
