 Gaussian 16, Revision A.03,
 Gaussian 16:  ES64L-G16RevA.03 25-Dec-2016

 ---------------------------------------------------------------
 #p ROCCSD(T)/cc-pVTZ Guess=Read SCF=(VeryTight,CDIIS,VShift=10)
 ---------------------------------------------------------------

 --------
 O2_O2_20
 --------
 Symbolic Z-matrix:
 Charge = -1 Multiplicity = 2

                         Standard orientation:
 ---------------------------------------------------------------------
 Center     Atomic      Atomic             Coordinates (Angstroms)
 Number     Number       Type             X           Y           Z
 ---------------------------------------------------------------------
      1          8           0        0.000000    0.000000    0.934161
      2          8           0        0.000000    0.000000    2.286542
      3          8           0        0.000000    0.000000   -2.286542
      4          8           0        0.000000    0.000000   -0.934161
 ---------------------------------------------------------------------

 SCF Done:  E(ROHF) =  -299.021131833     A.U. after    9 cycles
 E2 =    -0.1292969569D+01 EUMP2 =    -0.30031410140193D+03
 CCSD(T)
 CCSD(T)= -0.30022172805D+03

 Unable to determine electronic state:  an orbital has unidentified symmetry.
 Alpha  occ. eigenvalues --  -20.51222 -20.51219 -20.41697 -20.41697  -1.29691
 Alpha  occ. eigenvalues --   -1.27273  -0.94264  -0.85891  -0.49096  -0.48164
 Alpha  occ. eigenvalues --   -0.46019  -0.40553  -0.35952  -0.34864  -0.26101
 Alpha  occ. eigenvalues --   -0.23434  -0.10257
 Alpha virt. eigenvalues --    0.13201   0.51810   0.61304   0.90841   0.91515
 Alpha virt. eigenvalues --    0.93655   0.93676   0.97155   0.98777   1.01596
 Alpha virt. eigenvalues --    1.03591   1.12045   1.12504   1.16860   1.19136

 Mulliken charges and spin densities:
               1          2
     1  O   -0.073485   0.355225
     2  O   -0.426515   0.144775
     3  O   -0.426515   0.144775
     4  O   -0.073485   0.355225
 Sum of Mulliken charges =  -1.00000   1.00000

 Dipole moment (field-independent basis, Debye):
    X=             -0.0000    Y=             -0.0000    Z=              0.0000  Tot=              0.0000
 Quadrupole moment (field-independent basis, Debye-Ang):
   XX=            -22.6045   YY=            -23.1321   ZZ=            -44.4653
   XY=              0.0000   XZ=              0.0000   YZ=              0.0000

 20486\CCSD=-300.1159185\CCSD(T)=-300.221728\RMSD=8.171e-09\PG=D*H [C*(
 Normal termination of Gaussian 16 at Sat Jan 14 19:53:31 2023.
