 Gaussian 16, Revision A.03,
 Gaussian 16:  ES64L-G16RevA.03 25-Dec-2016

 ---------------------------------------------------------------
 #p ROCCSD(T)/cc-pVTZ Guess=Read SCF=(VeryTight,CDIIS,VShift=10)
 ---------------------------------------------------------------

 ---------
 O2_O2_204
 ---------
 Symbolic Z-matrix:
 Charge = -1 Multiplicity = 2

                         Standard orientation:
 ---------------------------------------------------------------------
 Center     Atomic      Atomic             Coordinates (Angstroms)
 Number     Number       Type             X           Y           Z
 ---------------------------------------------------------------------
      1          8           0        0.000000    0.000000    2.236751
      2          8           0        0.000000    0.000000    3.589131
      3          8           0        0.000000    0.000000   -3.589131
      4          8           0        0.000000    0.000000   -2.236751
 ---------------------------------------------------------------------

 SCF Done:  E(ROHF) =  -299.131365906     A.U. after    8 cycles
 E2 =    -0.1046191528D+01 EUMP2 =    -0.30017755743381D+03
 CCSD(T)
 CCSD(T)= -0.30018261228D+03

 Unable to determine electronic state:  an orbital has unidentified symmetry.
 Alpha  occ. eigenvalues --  -20.48202 -20.48202 -20.47159 -20.47159  -1.29682
 Alpha  occ. eigenvalues --   -1.29675  -0.91686  -0.91632  -0.46999  -0.46995
 Alpha  occ. eigenvalues --   -0.44432  -0.44362  -0.41860  -0.41571  -0.25824
 Alpha  occ. eigenvalues --   -0.25813  -0.07628
 Alpha virt. eigenvalues --    0.01806   0.49819   0.51224   0.88782   0.91771
 Alpha virt. eigenvalues --    0.93099   0.93187   0.93236   0.93325   0.95653
 Alpha virt. eigenvalues --    0.98498   1.02314   1.02522   1.02581   1.02782

 Mulliken charges and spin densities:
               1          2
     1  O   -0.215632   0.263421
     2  O   -0.284368   0.236579
     3  O   -0.284368   0.236579
     4  O   -0.215632   0.263421
 Sum of Mulliken charges =  -1.00000   1.00000

 Dipole moment (field-independent basis, Debye):
    X=             -0.0000    Y=             -0.0000    Z=             -0.0000  Tot=              0.0000
 Quadrupole moment (field-independent basis, Debye-Ang):
   XX=            -21.4453   YY=            -23.7633   ZZ=            -68.8373
   XY=              0.0000   XZ=              0.0000   YZ=              0.0000

 366403\CCSD=-300.1279764\CCSD(T)=-300.1826123\RMSD=1.534e-09\PG=D*H [C
 Normal termination of Gaussian 16 at Sun Jan 15 00:18:42 2023.
