 Gaussian 16, Revision A.03,
 Gaussian 16:  ES64L-G16RevA.03 25-Dec-2016

 ---------------------------------------------------------------
 #p ROCCSD(T)/cc-pVTZ Guess=Read SCF=(VeryTight,CDIIS,VShift=10)
 ---------------------------------------------------------------

 ---------
 O2_O2_285
 ---------
 Symbolic Z-matrix:
 Charge = -1 Multiplicity = 2

                         Standard orientation:
 ---------------------------------------------------------------------
 Center     Atomic      Atomic             Coordinates (Angstroms)
 Number     Number       Type             X           Y           Z
 ---------------------------------------------------------------------
      1          8           0        0.000000    0.000000    2.810173
      2          8           0        0.000000    0.000000    4.162554
      3          8           0        0.000000    0.000000   -4.162554
      4          8           0        0.000000    0.000000   -2.810173
 ---------------------------------------------------------------------

 SCF Done:  E(ROHF) =  -299.130998547     A.U. after    8 cycles
 E2 =    -0.1047466628D+01 EUMP2 =    -0.30017846517458D+03
 CCSD(T)
 CCSD(T)= -0.30018220632D+03

 Unable to determine electronic state:  an orbital has unidentified symmetry.
 Alpha  occ. eigenvalues --  -20.48805 -20.48805 -20.48079 -20.48079  -1.30431
 Alpha  occ. eigenvalues --   -1.30429  -0.92441  -0.92418  -0.47748  -0.47747
 Alpha  occ. eigenvalues --   -0.45181  -0.45176  -0.42547  -0.42385  -0.26582
 Alpha  occ. eigenvalues --   -0.26581  -0.07566
 Alpha virt. eigenvalues --    0.00210   0.49708   0.49769   0.89678   0.89809
 Alpha virt. eigenvalues --    0.92408   0.92410   0.92545   0.92547   0.95804
 Alpha virt. eigenvalues --    0.95886   1.01680   1.01685   1.01887   1.01892

 Mulliken charges and spin densities:
               1          2
     1  O   -0.225937   0.259514
     2  O   -0.274063   0.240486
     3  O   -0.274063   0.240486
     4  O   -0.225937   0.259514
 Sum of Mulliken charges =  -1.00000   1.00000

 Dipole moment (field-independent basis, Debye):
    X=             -0.0000    Y=              0.0000    Z=             -0.0000  Tot=              0.0000
 Quadrupole moment (field-independent basis, Debye-Ang):
   XX=            -21.4414   YY=            -23.7607   ZZ=            -86.0026
   XY=              0.0000   XZ=              0.0000   YZ=              0.0000

 360989\CCSD=-300.1275618\CCSD(T)=-300.1822063\RMSD=1.106e-09\PG=D*H [C
 Normal termination of Gaussian 16 at Sun Jan 15 02:07:56 2023.
