 Gaussian 16, Revision A.03,
 Gaussian 16:  ES64L-G16RevA.03 25-Dec-2016

 ---------------------------------------------------------------
 #p ROCCSD(T)/cc-pVTZ Guess=Read SCF=(VeryTight,CDIIS,VShift=10)
 ---------------------------------------------------------------

 --------
 O2_O2_58
 --------
 Symbolic Z-matrix:
 Charge = -1 Multiplicity = 2

                         Standard orientation:
 ---------------------------------------------------------------------
 Center     Atomic      Atomic             Coordinates (Angstroms)
 Number     Number       Type             X           Y           Z
 ---------------------------------------------------------------------
      1          8           0        0.000000    0.000000    1.203175
      2          8           0        0.000000    0.000000    2.555555
      3          8           0        0.000000    0.000000   -2.555555
      4          8           0        0.000000    0.000000   -1.203175
 ---------------------------------------------------------------------

 SCF Done:  E(ROHF) =  -298.994800993     A.U. after   12 cycles
 E2 =    -0.1427879366D+01 EUMP2 =    -0.30042268035838D+03
 CCSD(T)
 CCSD(T)= -0.30023056683D+03

 Unable to determine electronic state:  an orbital has unidentified symmetry.
 Alpha  occ. eigenvalues --  -20.50288 -20.50286 -20.44474 -20.44474  -1.29004
 Alpha  occ. eigenvalues --   -1.28495  -0.91541  -0.89181  -0.48043  -0.47271
 Alpha  occ. eigenvalues --   -0.45277  -0.40609  -0.39753  -0.37830  -0.26409
 Alpha  occ. eigenvalues --   -0.25464  -0.08186
 Alpha virt. eigenvalues --    0.09032   0.50483   0.57502   0.90008   0.91893
 Alpha virt. eigenvalues --    0.92434   0.94507   0.95720   0.97421   0.99796
 Alpha virt. eigenvalues --    1.00219   1.01762   1.12341   1.13053   1.14021

 Mulliken charges and spin densities:
               1          2
     1  O   -0.142380   0.326933
     2  O   -0.357620   0.173067
     3  O   -0.357620   0.173067
     4  O   -0.142380   0.326933
 Sum of Mulliken charges =  -1.00000   1.00000

 Dipole moment (field-independent basis, Debye):
    X=             -0.0000    Y=             -0.0000    Z=              0.0000  Tot=              0.0000
 Quadrupole moment (field-independent basis, Debye-Ang):
   XX=            -22.5723   YY=            -23.1401   ZZ=            -47.2159
   XY=              0.0000   XZ=              0.0000   YZ=              0.0000

 752\CCSD=-300.1086648\CCSD(T)=-300.2305668\RMSD=5.402e-10\PG=D*H [C*(O
 Normal termination of Gaussian 16 at Sat Jan 14 20:50:20 2023.
