 Gaussian 16, Revision A.03,
 Gaussian 16:  ES64L-G16RevA.03 25-Dec-2016

 ---------------------------------------------------------------
 #p ROCCSD(T)/cc-pVTZ Guess=Read SCF=(VeryTight,CDIIS,VShift=10)
 ---------------------------------------------------------------

 ---------
 O2_O2_170
 ---------
 Symbolic Z-matrix:
 Charge = -1 Multiplicity = 2

                         Standard orientation:
 ---------------------------------------------------------------------
 Center     Atomic      Atomic             Coordinates (Angstroms)
 Number     Number       Type             X           Y           Z
 ---------------------------------------------------------------------
      1          8           0        0.000000    0.000000    1.996055
      2          8           0        0.000000    0.000000    3.348435
      3          8           0        0.000000    0.000000   -3.348435
      4          8           0        0.000000    0.000000   -1.996055
 ---------------------------------------------------------------------

 SCF Done:  E(ROHF) =  -299.131854215     A.U. after    8 cycles
 E2 =    -0.1045495704D+01 EUMP2 =    -0.30017734991851D+03
 CCSD(T)
 CCSD(T)= -0.30018319672D+03

 Unable to determine electronic state:  an orbital has unidentified symmetry.
 Alpha  occ. eigenvalues --  -20.47901 -20.47900 -20.46651 -20.46651  -1.29284
 Alpha  occ. eigenvalues --   -1.29271  -0.91292  -0.91193  -0.46606  -0.46589
 Alpha  occ. eigenvalues --   -0.44074  -0.43872  -0.41507  -0.41117  -0.25429
 Alpha  occ. eigenvalues --   -0.25390  -0.07695
 Alpha virt. eigenvalues --    0.02712   0.49199   0.52495   0.86250   0.92824
 Alpha virt. eigenvalues --    0.93363   0.93498   0.93695   0.93832   0.95102
 Alpha virt. eigenvalues --    1.02368   1.02585   1.03373   1.03565   1.03664

 Mulliken charges and spin densities:
               1          2
     1  O   -0.209343   0.265593
     2  O   -0.290657   0.234407
     3  O   -0.290657   0.234407
     4  O   -0.209343   0.265593
 Sum of Mulliken charges =  -1.00000   1.00000

 Dipole moment (field-independent basis, Debye):
    X=             -0.0000    Y=              0.0000    Z=              0.0000  Tot=              0.0000
 Quadrupole moment (field-independent basis, Debye-Ang):
   XX=            -21.4501   YY=            -23.7652   ZZ=            -62.6158
   XY=              0.0000   XZ=              0.0000   YZ=              0.0000

 897\CCSD=-300.1285439\CCSD(T)=-300.1831967\RMSD=2.235e-09\PG=D*H [C*(O
 Normal termination of Gaussian 16 at Sat Jan 14 23:33:31 2023.
