 Gaussian 16, Revision A.03,
 Gaussian 16:  ES64L-G16RevA.03 25-Dec-2016

 ---------------------------------------------------------------
 #p ROCCSD(T)/cc-pVTZ Guess=Read SCF=(VeryTight,CDIIS,VShift=10)
 ---------------------------------------------------------------

 ---------
 O2_O2_152
 ---------
 Symbolic Z-matrix:
 Charge = -1 Multiplicity = 2

                         Standard orientation:
 ---------------------------------------------------------------------
 Center     Atomic      Atomic             Coordinates (Angstroms)
 Number     Number       Type             X           Y           Z
 ---------------------------------------------------------------------
      1          8           0        0.000000    0.000000    1.868627
      2          8           0        0.000000    0.000000    3.221008
      3          8           0        0.000000    0.000000   -3.221008
      4          8           0        0.000000    0.000000   -1.868627
 ---------------------------------------------------------------------

 SCF Done:  E(ROHF) =  -299.132306646     A.U. after    8 cycles
 E2 =    -0.1045089648D+01 EUMP2 =    -0.30017739629446D+03
 CCSD(T)
 CCSD(T)= -0.30018376197D+03

 Unable to determine electronic state:  an orbital has unidentified symmetry.
 Alpha  occ. eigenvalues --  -20.47732 -20.47732 -20.46344 -20.46344  -1.29050
 Alpha  occ. eigenvalues --   -1.29029  -0.91068  -0.90920  -0.46377  -0.46346
 Alpha  occ. eigenvalues --   -0.43891  -0.43548  -0.41304  -0.40838  -0.25204
 Alpha  occ. eigenvalues --   -0.25130  -0.07754
 Alpha virt. eigenvalues --    0.03281   0.48770   0.53309   0.84646   0.93105
 Alpha virt. eigenvalues --    0.93438   0.93568   0.94053   0.94188   0.94918
 Alpha virt. eigenvalues --    1.02219   1.02447   1.04071   1.04252   1.08621

 Mulliken charges and spin densities:
               1          2
     1  O   -0.205296   0.266832
     2  O   -0.294704   0.233168
     3  O   -0.294704   0.233168
     4  O   -0.205296   0.266832
 Sum of Mulliken charges =  -1.00000   1.00000

 Dipole moment (field-independent basis, Debye):
    X=             -0.0000    Y=             -0.0000    Z=             -0.0000  Tot=              0.0000
 Quadrupole moment (field-independent basis, Debye-Ang):
   XX=            -21.4547   YY=            -23.7664   ZZ=            -59.5610
   XY=              0.0000   XZ=              0.0000   YZ=              0.0000

 37886\CCSD=-300.129084\CCSD(T)=-300.183762\RMSD=4.053e-09\PG=D*H [C*(O
 Normal termination of Gaussian 16 at Sat Jan 14 23:09:36 2023.
