 Gaussian 16, Revision A.03,
 Gaussian 16:  ES64L-G16RevA.03 25-Dec-2016

 ---------------------------------------------------------------
 #p ROCCSD(T)/cc-pVTZ Guess=Read SCF=(VeryTight,CDIIS,VShift=10)
 ---------------------------------------------------------------

 ---------
 O2_O2_241
 ---------
 Symbolic Z-matrix:
 Charge = -1 Multiplicity = 2

                         Standard orientation:
 ---------------------------------------------------------------------
 Center     Atomic      Atomic             Coordinates (Angstroms)
 Number     Number       Type             X           Y           Z
 ---------------------------------------------------------------------
      1          8           0        0.000000    0.000000    2.498685
      2          8           0        0.000000    0.000000    3.851065
      3          8           0        0.000000    0.000000   -3.851065
      4          8           0        0.000000    0.000000   -2.498685
 ---------------------------------------------------------------------

 SCF Done:  E(ROHF) =  -299.131129776     A.U. after    8 cycles
 E2 =    -0.1046837747D+01 EUMP2 =    -0.30017796752285D+03
 CCSD(T)
 CCSD(T)= -0.30018234608D+03

 Unable to determine electronic state:  an orbital has unidentified symmetry.
 Alpha  occ. eigenvalues --  -20.48498 -20.48498 -20.47623 -20.47623  -1.30056
 Alpha  occ. eigenvalues --   -1.30052  -0.92061  -0.92027  -0.47372  -0.47371
 Alpha  occ. eigenvalues --   -0.44798  -0.44779  -0.42199  -0.41982  -0.26201
 Alpha  occ. eigenvalues --   -0.26199  -0.07590
 Alpha virt. eigenvalues --    0.00999   0.49941   0.50343   0.89704   0.90567
 Alpha virt. eigenvalues --    0.92768   0.92785   0.92906   0.92923   0.95973
 Alpha virt. eigenvalues --    0.96622   1.02039   1.02089   1.02246   1.02294

 Mulliken charges and spin densities:
               1          2
     1  O   -0.221003   0.261416
     2  O   -0.278997   0.238584
     3  O   -0.278997   0.238584
     4  O   -0.221003   0.261416
 Sum of Mulliken charges =  -1.00000   1.00000

 Dipole moment (field-independent basis, Debye):
    X=             -0.0000    Y=              0.0000    Z=             -0.0000  Tot=              0.0000
 Quadrupole moment (field-independent basis, Debye-Ang):
   XX=            -21.4429   YY=            -23.7618   ZZ=            -76.2691
   XY=              0.0000   XZ=              0.0000   YZ=              0.0000

 363067\CCSD=-300.1277092\CCSD(T)=-300.1823461\RMSD=1.472e-09\PG=D*H [C
 Normal termination of Gaussian 16 at Sun Jan 15 01:08:03 2023.
