 Gaussian 16, Revision A.03,
 Gaussian 16:  ES64L-G16RevA.03 25-Dec-2016

 ---------------------------------------------------------------
 #p ROCCSD(T)/cc-pVTZ Guess=Read SCF=(VeryTight,CDIIS,VShift=10)
 ---------------------------------------------------------------

 ---------
 O2_O2_114
 ---------
 Symbolic Z-matrix:
 Charge = -1 Multiplicity = 2

                         Standard orientation:
 ---------------------------------------------------------------------
 Center     Atomic      Atomic             Coordinates (Angstroms)
 Number     Number       Type             X           Y           Z
 ---------------------------------------------------------------------
      1          8           0        0.000000    0.000000    1.599615
      2          8           0        0.000000    0.000000    2.951995
      3          8           0        0.000000    0.000000   -2.951995
      4          8           0        0.000000    0.000000   -1.599615
 ---------------------------------------------------------------------

 SCF Done:  E(ROHF) =  -298.960472588     A.U. after   11 cycles
 E2 =    -0.1623185850D+01 EUMP2 =    -0.30058365843808D+03
 CCSD(T)
 CCSD(T)= -0.30022660721D+03

 Unable to determine electronic state:  partially filled degenerate orbitals.
 Alpha  occ. eigenvalues --  -20.49681 -20.49680 -20.46509 -20.46509  -1.29470
 Alpha  occ. eigenvalues --   -1.29403  -0.91420  -0.91012  -0.48334  -0.48221
 Alpha  occ. eigenvalues --   -0.44400  -0.43410  -0.40025  -0.39265  -0.27016
 Alpha  occ. eigenvalues --   -0.26893  -0.06983
 Alpha virt. eigenvalues --    0.05734   0.48219   0.54424   0.83738   0.91824
 Alpha virt. eigenvalues --    0.92853   0.93771   0.93920   0.94733   0.95689
 Alpha virt. eigenvalues --    1.00248   1.02379   1.05394   1.07508   1.12886

 Mulliken charges and spin densities:
               1          2
     1  O   -0.184936   0.299176
     2  O   -0.315064   0.200824
     3  O   -0.315064   0.200824
     4  O   -0.184936   0.299176
 Sum of Mulliken charges =  -1.00000   1.00000

 Dipole moment (field-independent basis, Debye):
    X=             -0.0000    Y=              0.0000    Z=             -0.0000  Tot=              0.0000
 Quadrupole moment (field-independent basis, Debye-Ang):
   XX=            -22.4754   YY=            -23.0899   ZZ=            -54.2077
   XY=              0.0000   XZ=              0.0000   YZ=              0.0000

 09823\CCSD=-300.0911564\CCSD(T)=-300.2266072\RMSD=6.036e-09\PG=D*H [C*
 Normal termination of Gaussian 16 at Sat Jan 14 22:16:21 2023.
