 Gaussian 16, Revision A.03,
 Gaussian 16:  ES64L-G16RevA.03 25-Dec-2016

 ---------------------------------------------------------------
 #p ROCCSD(T)/cc-pVTZ Guess=Read SCF=(VeryTight,CDIIS,VShift=10)
 ---------------------------------------------------------------

 --------
 O2_O2_50
 --------
 Symbolic Z-matrix:
 Charge = -1 Multiplicity = 2

                         Standard orientation:
 ---------------------------------------------------------------------
 Center     Atomic      Atomic             Coordinates (Angstroms)
 Number     Number       Type             X           Y           Z
 ---------------------------------------------------------------------
      1          8           0        0.000000    0.000000    1.146540
      2          8           0        0.000000    0.000000    2.498920
      3          8           0        0.000000    0.000000   -2.498920
      4          8           0        0.000000    0.000000   -1.146540
 ---------------------------------------------------------------------

 SCF Done:  E(ROHF) =  -299.001607525     A.U. after   12 cycles
 E2 =    -0.1398808109D+01 EUMP2 =    -0.30040041563443D+03
 CCSD(T)
 CCSD(T)= -0.30023103418D+03

 Unable to determine electronic state:  an orbital has unidentified symmetry.
 Alpha  occ. eigenvalues --  -20.50455 -20.50454 -20.44038 -20.44038  -1.29008
 Alpha  occ. eigenvalues --   -1.28311  -0.91787  -0.88713  -0.48101  -0.47079
 Alpha  occ. eigenvalues --   -0.45665  -0.39847  -0.39794  -0.37529  -0.26340
 Alpha  occ. eigenvalues --   -0.25150  -0.08502
 Alpha virt. eigenvalues --    0.09720   0.50811   0.58092   0.89946   0.91800
 Alpha virt. eigenvalues --    0.92467   0.94390   0.95989   0.97676   0.99986
 Alpha virt. eigenvalues --    1.01938   1.04183   1.13003   1.13413   1.14196

 Mulliken charges and spin densities:
               1          2
     1  O   -0.131669   0.332373
     2  O   -0.368331   0.167627
     3  O   -0.368331   0.167627
     4  O   -0.131669   0.332373
 Sum of Mulliken charges =  -1.00000   1.00000

 Dipole moment (field-independent basis, Debye):
    X=             -0.0000    Y=             -0.0000    Z=             -0.0000  Tot=              0.0000
 Quadrupole moment (field-independent basis, Debye-Ang):
   XX=            -22.5882   YY=            -23.1471   ZZ=            -46.4455
   XY=              0.0000   XZ=              0.0000   YZ=              0.0000

 186\CCSD=-300.1120007\CCSD(T)=-300.2310342\RMSD=1.041e-09\PG=D*H [C*(O
 Normal termination of Gaussian 16 at Sat Jan 14 20:38:21 2023.
