 Gaussian 16, Revision A.03,
 Gaussian 16:  ES64L-G16RevA.03 25-Dec-2016

 ---------------------------------------------------------------
 #p ROCCSD(T)/cc-pVTZ Guess=Read SCF=(VeryTight,CDIIS,VShift=10)
 ---------------------------------------------------------------

 ---------
 O2_O2_219
 ---------
 Symbolic Z-matrix:
 Charge = -1 Multiplicity = 2

                         Standard orientation:
 ---------------------------------------------------------------------
 Center     Atomic      Atomic             Coordinates (Angstroms)
 Number     Number       Type             X           Y           Z
 ---------------------------------------------------------------------
      1          8           0        0.000000    0.000000    2.342940
      2          8           0        0.000000    0.000000    3.695320
      3          8           0        0.000000    0.000000   -3.695320
      4          8           0        0.000000    0.000000   -2.342940
 ---------------------------------------------------------------------

 SCF Done:  E(ROHF) =  -299.131246696     A.U. after    8 cycles
 E2 =    -0.1046467841D+01 EUMP2 =    -0.30017771453731D+03
 CCSD(T)
 CCSD(T)= -0.30018247621D+03

 Unable to determine electronic state:  an orbital has unidentified symmetry.
 Alpha  occ. eigenvalues --  -20.48327 -20.48326 -20.47357 -20.47357  -1.29840
 Alpha  occ. eigenvalues --   -1.29835  -0.91845  -0.91801  -0.47157  -0.47155
 Alpha  occ. eigenvalues --   -0.44584  -0.44542  -0.42003  -0.41747  -0.25983
 Alpha  occ. eigenvalues --   -0.25977  -0.07610
 Alpha virt. eigenvalues --    0.01460   0.49928   0.50807   0.89341   0.91228
 Alpha virt. eigenvalues --    0.92965   0.93011   0.93102   0.93148   0.95849
 Alpha virt. eigenvalues --    0.97462   1.02214   1.02354   1.02421   1.02557

 Mulliken charges and spin densities:
               1          2
     1  O   -0.217968   0.262561
     2  O   -0.282032   0.237439
     3  O   -0.282032   0.237439
     4  O   -0.217968   0.262561
 Sum of Mulliken charges =  -1.00000   1.00000

 Dipole moment (field-independent basis, Debye):
    X=             -0.0000    Y=              0.0000    Z=              0.0000  Tot=              0.0000
 Quadrupole moment (field-independent basis, Debye-Ang):
   XX=            -21.4441   YY=            -23.7626   ZZ=            -71.7673
   XY=              0.0000   XZ=              0.0000   YZ=              0.0000

 4759\CCSD=-300.1278411\CCSD(T)=-300.1824762\RMSD=1.573e-09\PG=D*H [C*(
 Normal termination of Gaussian 16 at Sun Jan 15 00:38:19 2023.
