 Gaussian 16, Revision A.03,
 Gaussian 16:  ES64L-G16RevA.03 25-Dec-2016

 ---------------------------------------------------------------
 #p ROCCSD(T)/cc-pVTZ Guess=Read SCF=(VeryTight,CDIIS,VShift=10)
 ---------------------------------------------------------------

 ---------
 O2_O2_206
 ---------
 Symbolic Z-matrix:
 Charge = -1 Multiplicity = 2

                         Standard orientation:
 ---------------------------------------------------------------------
 Center     Atomic      Atomic             Coordinates (Angstroms)
 Number     Number       Type             X           Y           Z
 ---------------------------------------------------------------------
      1          8           0        0.000000    0.000000    2.250910
      2          8           0        0.000000    0.000000    3.603290
      3          8           0        0.000000    0.000000   -3.603290
      4          8           0        0.000000    0.000000   -2.250910
 ---------------------------------------------------------------------

 SCF Done:  E(ROHF) =  -299.131347515     A.U. after    8 cycles
 E2 =    -0.1046229510D+01 EUMP2 =    -0.30017757702568D+03
 CCSD(T)
 CCSD(T)= -0.30018259107D+03

 Unable to determine electronic state:  an orbital has unidentified symmetry.
 Alpha  occ. eigenvalues --  -20.48219 -20.48219 -20.47186 -20.47186  -1.29704
 Alpha  occ. eigenvalues --   -1.29697  -0.91707  -0.91655  -0.47021  -0.47017
 Alpha  occ. eigenvalues --   -0.44452  -0.44387  -0.41879  -0.41595  -0.25846
 Alpha  occ. eigenvalues --   -0.25835  -0.07626
 Alpha virt. eigenvalues --    0.01758   0.49839   0.51163   0.88875   0.91697
 Alpha virt. eigenvalues --    0.93081   0.93162   0.93218   0.93300   0.95684
 Alpha virt. eigenvalues --    0.98329   1.02302   1.02510   1.02547   1.02749

 Mulliken charges and spin densities:
               1          2
     1  O   -0.215958   0.263303
     2  O   -0.284042   0.236697
     3  O   -0.284042   0.236697
     4  O   -0.215958   0.263303
 Sum of Mulliken charges =  -1.00000   1.00000

 Dipole moment (field-independent basis, Debye):
    X=             -0.0000    Y=              0.0000    Z=             -0.0000  Tot=              0.0000
 Quadrupole moment (field-independent basis, Debye-Ang):
   XX=            -21.4451   YY=            -23.7632   ZZ=            -69.2215
   XY=              0.0000   XZ=              0.0000   YZ=              0.0000

 153\CCSD=-300.1279554\CCSD(T)=-300.1825911\RMSD=1.542e-09\PG=D*H [C*(O
 Normal termination of Gaussian 16 at Sun Jan 15 00:21:21 2023.
