 Gaussian 16, Revision A.03,
 Gaussian 16:  ES64L-G16RevA.03 25-Dec-2016

 ---------------------------------------------------------------
 #p ROCCSD(T)/cc-pVTZ Guess=Read SCF=(VeryTight,CDIIS,VShift=10)
 ---------------------------------------------------------------

 --------
 O2_O2_81
 --------
 Symbolic Z-matrix:
 Charge = -1 Multiplicity = 2

                         Standard orientation:
 ---------------------------------------------------------------------
 Center     Atomic      Atomic             Coordinates (Angstroms)
 Number     Number       Type             X           Y           Z
 ---------------------------------------------------------------------
      1          8           0        0.000000    0.000000    1.365998
      2          8           0        0.000000    0.000000    2.718378
      3          8           0        0.000000    0.000000   -2.718378
      4          8           0        0.000000    0.000000   -1.365998
 ---------------------------------------------------------------------

 SCF Done:  E(ROHF) =  -298.977584851     A.U. after   11 cycles
 E2 =    -0.1510343161D+01 EUMP2 =    -0.30048792801185D+03
 CCSD(T)
 CCSD(T)= -0.30022842615D+03

 Unable to determine electronic state:  an orbital has unidentified symmetry.
 Alpha  occ. eigenvalues --  -20.49919 -20.49918 -20.45475 -20.45475  -1.29132
 Alpha  occ. eigenvalues --   -1.28919  -0.91274  -0.90152  -0.48067  -0.47718
 Alpha  occ. eigenvalues --   -0.44619  -0.42140  -0.39785  -0.38527  -0.26635
 Alpha  occ. eigenvalues --   -0.26173  -0.07522
 Alpha virt. eigenvalues --    0.07421   0.49453   0.56087   0.90548   0.90703
 Alpha virt. eigenvalues --    0.92271   0.92884   0.94849   0.94968   0.96702
 Alpha virt. eigenvalues --    0.99667   1.01701   1.09182   1.11331   1.13073

 Mulliken charges and spin densities:
               1          2
     1  O   -0.165048   0.313403
     2  O   -0.334952   0.186597
     3  O   -0.334952   0.186597
     4  O   -0.165048   0.313403
 Sum of Mulliken charges =  -1.00000   1.00000

 Dipole moment (field-independent basis, Debye):
    X=             -0.0000    Y=              0.0000    Z=             -0.0000  Tot=              0.0000
 Quadrupole moment (field-independent basis, Debye-Ang):
   XX=            -22.5256   YY=            -23.1164   ZZ=            -49.8026
   XY=              0.0000   XZ=              0.0000   YZ=              0.0000

 41\CCSD=-300.0997492\CCSD(T)=-300.2284262\RMSD=9.224e-09\PG=D*H [C*(O1
 Normal termination of Gaussian 16 at Sat Jan 14 21:24:48 2023.
