 Gaussian 16, Revision A.03,
 Gaussian 16:  ES64L-G16RevA.03 25-Dec-2016

 ---------------------------------------------------------------
 #p ROCCSD(T)/cc-pVTZ Guess=Read SCF=(VeryTight,CDIIS,VShift=10)
 ---------------------------------------------------------------

 ---------
 O2_O2_149
 ---------
 Symbolic Z-matrix:
 Charge = -1 Multiplicity = 2

                         Standard orientation:
 ---------------------------------------------------------------------
 Center     Atomic      Atomic             Coordinates (Angstroms)
 Number     Number       Type             X           Y           Z
 ---------------------------------------------------------------------
      1          8           0        0.000000    0.000000    1.847390
      2          8           0        0.000000    0.000000    3.199770
      3          8           0        0.000000    0.000000   -3.199770
      4          8           0        0.000000    0.000000   -1.847390
 ---------------------------------------------------------------------

 SCF Done:  E(ROHF) =  -299.132399943     A.U. after    8 cycles
 E2 =    -0.1045018757D+01 EUMP2 =    -0.30017741870011D+03
 CCSD(T)
 CCSD(T)= -0.30018387981D+03

 Unable to determine electronic state:  an orbital has unidentified symmetry.
 Alpha  occ. eigenvalues --  -20.47704 -20.47703 -20.46290 -20.46290  -1.29010
 Alpha  occ. eigenvalues --   -1.28987  -0.91031  -0.90871  -0.46337  -0.46303
 Alpha  occ. eigenvalues --   -0.43862  -0.43488  -0.41269  -0.40788  -0.25165
 Alpha  occ. eigenvalues --   -0.25084  -0.07766
 Alpha virt. eigenvalues --    0.03383   0.48709   0.53450   0.84425   0.93131
 Alpha virt. eigenvalues --    0.93443   0.93571   0.94119   0.94254   0.94898
 Alpha virt. eigenvalues --    1.02179   1.02409   1.04215   1.04394   1.09602

 Mulliken charges and spin densities:
               1          2
     1  O   -0.204562   0.267041
     2  O   -0.295438   0.232959
     3  O   -0.295438   0.232959
     4  O   -0.204562   0.267041
 Sum of Mulliken charges =  -1.00000   1.00000

 Dipole moment (field-independent basis, Debye):
    X=             -0.0000    Y=              0.0000    Z=              0.0000  Tot=              0.0000
 Quadrupole moment (field-independent basis, Debye-Ang):
   XX=            -21.4556   YY=            -23.7667   ZZ=            -59.0683
   XY=              0.0000   XZ=              0.0000   YZ=              0.0000

 088\CCSD=-300.1291962\CCSD(T)=-300.1838798\RMSD=4.473e-09\PG=D*H [C*(O
 Normal termination of Gaussian 16 at Sat Jan 14 23:05:34 2023.
