 Gaussian 16, Revision A.03,
 Gaussian 16:  ES64L-G16RevA.03 25-Dec-2016

 ---------------------------------------------------------------
 #p ROCCSD(T)/cc-pVTZ Guess=Read SCF=(VeryTight,CDIIS,VShift=10)
 ---------------------------------------------------------------

 -------
 O2_O2_3
 -------
 Symbolic Z-matrix:
 Charge = -1 Multiplicity = 2

                         Standard orientation:
 ---------------------------------------------------------------------
 Center     Atomic      Atomic             Coordinates (Angstroms)
 Number     Number       Type             X           Y           Z
 ---------------------------------------------------------------------
      1          8           0        0.000000    0.000000    0.813813
      2          8           0        0.000000    0.000000    2.166194
      3          8           0        0.000000    0.000000   -2.166194
      4          8           0        0.000000    0.000000   -0.813813
 ---------------------------------------------------------------------

 SCF Done:  E(ROHF) =  -299.005875024     A.U. after   12 cycles
 E2 =    -0.1244402964D+01 EUMP2 =    -0.30025027798817D+03
 CCSD(T)
 CCSD(T)= -0.30018946078D+03

 Unable to determine electronic state:  an orbital has unidentified symmetry.
 Alpha  occ. eigenvalues --  -20.51878 -20.51871 -20.39556 -20.39556  -1.31598
 Alpha  occ. eigenvalues --   -1.26274  -0.97748  -0.83136  -0.51074  -0.50332
 Alpha  occ. eigenvalues --   -0.45030  -0.42154  -0.34576  -0.29128  -0.25888
 Alpha  occ. eigenvalues --   -0.21877  -0.11727
 Alpha virt. eigenvalues --    0.16050   0.51868   0.64678   0.91468   0.91541
 Alpha virt. eigenvalues --    0.92897   0.94375   0.98050   0.99637   1.03349
 Alpha virt. eigenvalues --    1.05393   1.10932   1.11896   1.18236   1.20598

 Mulliken charges and spin densities:
               1          2
     1  O   -0.019197   0.367852
     2  O   -0.480803   0.132148
     3  O   -0.480803   0.132148
     4  O   -0.019197   0.367852
 Sum of Mulliken charges =  -1.00000   1.00000

 Dipole moment (field-independent basis, Debye):
    X=             -0.0000    Y=              0.0000    Z=              0.0000  Tot=              0.0000
 Quadrupole moment (field-independent basis, Debye-Ang):
   XX=            -22.5316   YY=            -23.0500   ZZ=            -44.3278
   XY=              0.0000   XZ=              0.0000   YZ=              0.0000

 \CCSD=-300.0919255\CCSD(T)=-300.1894608\RMSD=5.841e-10\PG=D*H [C*(O1O1
 Normal termination of Gaussian 16 at Sat Jan 14 19:28:47 2023.
