 Gaussian 16, Revision A.03,
 Gaussian 16:  ES64L-G16RevA.03 25-Dec-2016

 ---------------------------------------------------------------
 #p ROCCSD(T)/cc-pVTZ Guess=Read SCF=(VeryTight,CDIIS,VShift=10)
 ---------------------------------------------------------------

 --------
 O2_O2_23
 --------
 Symbolic Z-matrix:
 Charge = -1 Multiplicity = 2

                         Standard orientation:
 ---------------------------------------------------------------------
 Center     Atomic      Atomic             Coordinates (Angstroms)
 Number     Number       Type             X           Y           Z
 ---------------------------------------------------------------------
      1          8           0        0.000000    0.000000    0.955399
      2          8           0        0.000000    0.000000    2.307779
      3          8           0        0.000000    0.000000   -2.307779
      4          8           0        0.000000    0.000000   -0.955399
 ---------------------------------------------------------------------

 SCF Done:  E(ROHF) =  -299.020593070     A.U. after    9 cycles
 E2 =    -0.1302915633D+01 EUMP2 =    -0.30032350870356D+03
 CCSD(T)
 CCSD(T)= -0.30022434035D+03

 Unable to determine electronic state:  an orbital has unidentified symmetry.
 Alpha  occ. eigenvalues --  -20.51134 -20.51131 -20.41999 -20.41999  -1.29534
 Alpha  occ. eigenvalues --   -1.27412  -0.93849  -0.86275  -0.48902  -0.47833
 Alpha  occ. eigenvalues --   -0.46158  -0.40403  -0.36152  -0.35587  -0.26127
 Alpha  occ. eigenvalues --   -0.23656  -0.10033
 Alpha virt. eigenvalues --    0.12773   0.51739   0.60870   0.90694   0.91538
 Alpha virt. eigenvalues --    0.93509   0.93740   0.97020   0.98648   1.01357
 Alpha virt. eigenvalues --    1.03340   1.12070   1.12584   1.16568   1.18832

 Mulliken charges and spin densities:
               1          2
     1  O   -0.080910   0.352859
     2  O   -0.419090   0.147141
     3  O   -0.419090   0.147141
     4  O   -0.080910   0.352859
 Sum of Mulliken charges =  -1.00000   1.00000

 Dipole moment (field-independent basis, Debye):
    X=             -0.0000    Y=              0.0000    Z=             -0.0000  Tot=              0.0000
 Quadrupole moment (field-independent basis, Debye-Ang):
   XX=            -22.6088   YY=            -23.1390   ZZ=            -44.5804
   XY=              0.0000   XZ=              0.0000   YZ=              0.0000

 6141\CCSD=-300.1170617\CCSD(T)=-300.2243404\RMSD=8.685e-09\PG=D*H [C*(
 Normal termination of Gaussian 16 at Sat Jan 14 19:57:44 2023.
