 Gaussian 16, Revision A.03,
 Gaussian 16:  ES64L-G16RevA.03 25-Dec-2016

 ---------------------------------------------------------------
 #p ROCCSD(T)/cc-pVTZ Guess=Read SCF=(VeryTight,CDIIS,VShift=10)
 ---------------------------------------------------------------

 --------
 O2_O2_84
 --------
 Symbolic Z-matrix:
 Charge = -1 Multiplicity = 2

                         Standard orientation:
 ---------------------------------------------------------------------
 Center     Atomic      Atomic             Coordinates (Angstroms)
 Number     Number       Type             X           Y           Z
 ---------------------------------------------------------------------
      1          8           0        0.000000    0.000000    1.387236
      2          8           0        0.000000    0.000000    2.739616
      3          8           0        0.000000    0.000000   -2.739616
      4          8           0        0.000000    0.000000   -1.387236
 ---------------------------------------------------------------------

 SCF Done:  E(ROHF) =  -298.975671257     A.U. after   11 cycles
 E2 =    -0.1520896727D+01 EUMP2 =    -0.30049656798359D+03
 CCSD(T)
 CCSD(T)= -0.30022817197D+03

 Unable to determine electronic state:  an orbital has unidentified symmetry.
 Alpha  occ. eigenvalues --  -20.49884 -20.49882 -20.45585 -20.45585  -1.29158
 Alpha  occ. eigenvalues --   -1.28967  -0.91270  -0.90250  -0.48083  -0.47769
 Alpha  occ. eigenvalues --   -0.44571  -0.42290  -0.39801  -0.38604  -0.26668
 Alpha  occ. eigenvalues --   -0.26250  -0.07457
 Alpha virt. eigenvalues --    0.07242   0.49316   0.55923   0.89608   0.90820
 Alpha virt. eigenvalues --    0.92331   0.92974   0.94836   0.94870   0.96608
 Alpha virt. eigenvalues --    0.99690   1.01734   1.08785   1.10930   1.13065

 Mulliken charges and spin densities:
               1          2
     1  O   -0.167343   0.311871
     2  O   -0.332657   0.188129
     3  O   -0.332657   0.188129
     4  O   -0.167343   0.311871
 Sum of Mulliken charges =  -1.00000   1.00000

 Dipole moment (field-independent basis, Debye):
    X=             -0.0000    Y=             -0.0000    Z=             -0.0000  Tot=              0.0000
 Quadrupole moment (field-independent basis, Debye-Ang):
   XX=            -22.5200   YY=            -23.1136   ZZ=            -50.1731
   XY=              0.0000   XZ=              0.0000   YZ=              0.0000

 512\CCSD=-300.098754\CCSD(T)=-300.228172\RMSD=8.866e-09\PG=D*H [C*(O1O
 Normal termination of Gaussian 16 at Sat Jan 14 21:29:23 2023.
