 Gaussian 16, Revision A.03,
 Gaussian 16:  ES64L-G16RevA.03 25-Dec-2016

 ---------------------------------------------------------------
 #p ROCCSD(T)/cc-pVTZ Guess=Read SCF=(VeryTight,CDIIS,VShift=10)
 ---------------------------------------------------------------

 --------
 O2_O2_55
 --------
 Symbolic Z-matrix:
 Charge = -1 Multiplicity = 2

                         Standard orientation:
 ---------------------------------------------------------------------
 Center     Atomic      Atomic             Coordinates (Angstroms)
 Number     Number       Type             X           Y           Z
 ---------------------------------------------------------------------
      1          8           0        0.000000    0.000000    1.181937
      2          8           0        0.000000    0.000000    2.534317
      3          8           0        0.000000    0.000000   -2.534317
      4          8           0        0.000000    0.000000   -1.181937
 ---------------------------------------------------------------------

 SCF Done:  E(ROHF) =  -298.997326287     A.U. after   12 cycles
 E2 =    -0.1416984545D+01 EUMP2 =    -0.30041431083150D+03
 CCSD(T)
 CCSD(T)= -0.30023078602D+03

 Unable to determine electronic state:  an orbital has unidentified symmetry.
 Alpha  occ. eigenvalues --  -20.50349 -20.50347 -20.44317 -20.44317  -1.29001
 Alpha  occ. eigenvalues --   -1.28429  -0.91621  -0.89015  -0.48059  -0.47202
 Alpha  occ. eigenvalues --   -0.45411  -0.40341  -0.39764  -0.37721  -0.26382
 Alpha  occ. eigenvalues --   -0.25351  -0.08299
 Alpha virt. eigenvalues --    0.09281   0.50609   0.57716   0.89970   0.91856
 Alpha virt. eigenvalues --    0.92432   0.94471   0.95820   0.97516   0.99857
 Alpha virt. eigenvalues --    1.01682   1.01818   1.12748   1.13037   1.14076

 Mulliken charges and spin densities:
               1          2
     1  O   -0.138568   0.328930
     2  O   -0.361432   0.171070
     3  O   -0.361432   0.171070
     4  O   -0.138568   0.328930
 Sum of Mulliken charges =  -1.00000   1.00000

 Dipole moment (field-independent basis, Debye):
    X=             -0.0000    Y=             -0.0000    Z=              0.0000  Tot=              0.0000
 Quadrupole moment (field-independent basis, Debye-Ang):
   XX=            -22.5785   YY=            -23.1429   ZZ=            -46.9178
   XY=              0.0000   XZ=              0.0000   YZ=              0.0000

 80784\CCSD=-300.1099263\CCSD(T)=-300.230786\RMSD=7.040e-10\PG=D*H [C*(
 Normal termination of Gaussian 16 at Sat Jan 14 20:46:03 2023.
