 Gaussian 16, Revision A.03,
 Gaussian 16:  ES64L-G16RevA.03 25-Dec-2016

 ---------------------------------------------------------------
 #p ROCCSD(T)/cc-pVTZ Guess=Read SCF=(VeryTight,CDIIS,VShift=10)
 ---------------------------------------------------------------

 ---------
 O2_O2_276
 ---------
 Symbolic Z-matrix:
 Charge = -1 Multiplicity = 2

                         Standard orientation:
 ---------------------------------------------------------------------
 Center     Atomic      Atomic             Coordinates (Angstroms)
 Number     Number       Type             X           Y           Z
 ---------------------------------------------------------------------
      1          8           0        0.000000    0.000000    2.746460
      2          8           0        0.000000    0.000000    4.098840
      3          8           0        0.000000    0.000000   -4.098840
      4          8           0        0.000000    0.000000   -2.746460
 ---------------------------------------------------------------------

 SCF Done:  E(ROHF) =  -299.131018816     A.U. after    8 cycles
 E2 =    -0.1047348557D+01 EUMP2 =    -0.30017836737225D+03
 CCSD(T)
 CCSD(T)= -0.30018222721D+03

 Unable to determine electronic state:  an orbital has unidentified symmetry.
 Alpha  occ. eigenvalues --  -20.48746 -20.48746 -20.47993 -20.47993  -1.30360
 Alpha  occ. eigenvalues --   -1.30357  -0.92369  -0.92344  -0.47676  -0.47676
 Alpha  occ. eigenvalues --   -0.45107  -0.45102  -0.42480  -0.42309  -0.26509
 Alpha  occ. eigenvalues --   -0.26509  -0.07570
 Alpha virt. eigenvalues --    0.00359   0.49769   0.49862   0.89721   0.89920
 Alpha virt. eigenvalues --    0.92477   0.92480   0.92615   0.92617   0.95862
 Alpha virt. eigenvalues --    0.95990   1.01751   1.01759   1.01957   1.01966

 Mulliken charges and spin densities:
               1          2
     1  O   -0.225034   0.259865
     2  O   -0.274966   0.240135
     3  O   -0.274966   0.240135
     4  O   -0.225034   0.259865
 Sum of Mulliken charges =  -1.00000   1.00000

 Dipole moment (field-independent basis, Debye):
    X=             -0.0000    Y=              0.0000    Z=             -0.0000  Tot=              0.0000
 Quadrupole moment (field-independent basis, Debye-Ang):
   XX=            -21.4417   YY=            -23.7609   ZZ=            -83.9327
   XY=              0.0000   XZ=              0.0000   YZ=              0.0000

 1326\CCSD=-300.1275845\CCSD(T)=-300.1822272\RMSD=1.175e-09\PG=D*H [C*(
 Normal termination of Gaussian 16 at Sun Jan 15 01:55:08 2023.
