 Gaussian 16, Revision A.03,
 Gaussian 16:  ES64L-G16RevA.03 25-Dec-2016

 ---------------------------------------------------------------
 #p ROCCSD(T)/cc-pVTZ Guess=Read SCF=(VeryTight,CDIIS,VShift=10)
 ---------------------------------------------------------------

 ---------
 O2_O2_258
 ---------
 Symbolic Z-matrix:
 Charge = -1 Multiplicity = 2

                         Standard orientation:
 ---------------------------------------------------------------------
 Center     Atomic      Atomic             Coordinates (Angstroms)
 Number     Number       Type             X           Y           Z
 ---------------------------------------------------------------------
      1          8           0        0.000000    0.000000    2.619033
      2          8           0        0.000000    0.000000    3.971413
      3          8           0        0.000000    0.000000   -3.971413
      4          8           0        0.000000    0.000000   -2.619033
 ---------------------------------------------------------------------

 SCF Done:  E(ROHF) =  -299.131068030     A.U. after    8 cycles
 E2 =    -0.1047096790D+01 EUMP2 =    -0.30017816482006D+03
 CCSD(T)
 CCSD(T)= -0.30018227917D+03

 Unable to determine electronic state:  an orbital has unidentified symmetry.
 Alpha  occ. eigenvalues --  -20.48623 -20.48622 -20.47810 -20.47810  -1.30209
 Alpha  occ. eigenvalues --   -1.30206  -0.92216  -0.92187  -0.47525  -0.47525
 Alpha  occ. eigenvalues --   -0.44953  -0.44943  -0.42340  -0.42147  -0.26356
 Alpha  occ. eigenvalues --   -0.26355  -0.07579
 Alpha virt. eigenvalues --    0.00675   0.49876   0.50080   0.89764   0.90200
 Alpha virt. eigenvalues --    0.92623   0.92630   0.92761   0.92768   0.95951
 Alpha virt. eigenvalues --    0.96254   1.01898   1.01919   1.02104   1.02125

 Mulliken charges and spin densities:
               1          2
     1  O   -0.223071   0.260624
     2  O   -0.276929   0.239376
     3  O   -0.276929   0.239376
     4  O   -0.223071   0.260624
 Sum of Mulliken charges =  -1.00000   1.00000

 Dipole moment (field-independent basis, Debye):
    X=             -0.0000    Y=              0.0000    Z=             -0.0000  Tot=              0.0000
 Quadrupole moment (field-independent basis, Debye-Ang):
   XX=            -21.4422   YY=            -23.7613   ZZ=            -79.9146
   XY=              0.0000   XZ=              0.0000   YZ=              0.0000

 2119\CCSD=-300.1276397\CCSD(T)=-300.1822792\RMSD=1.327e-09\PG=D*H [C*(
 Normal termination of Gaussian 16 at Sun Jan 15 01:31:04 2023.
