 Gaussian 16, Revision A.03,
 Gaussian 16:  ES64L-G16RevA.03 25-Dec-2016

 ---------------------------------------------------------------
 #p ROCCSD(T)/cc-pVTZ Guess=Read SCF=(VeryTight,CDIIS,VShift=10)
 ---------------------------------------------------------------

 ---------
 O2_O2_179
 ---------
 Symbolic Z-matrix:
 Charge = -1 Multiplicity = 2

                         Standard orientation:
 ---------------------------------------------------------------------
 Center     Atomic      Atomic             Coordinates (Angstroms)
 Number     Number       Type             X           Y           Z
 ---------------------------------------------------------------------
      1          8           0        0.000000    0.000000    2.059769
      2          8           0        0.000000    0.000000    3.412149
      3          8           0        0.000000    0.000000   -3.412149
      4          8           0        0.000000    0.000000   -2.059769
 ---------------------------------------------------------------------

 SCF Done:  E(ROHF) =  -299.131686016     A.U. after    8 cycles
 E2 =    -0.1045688664D+01 EUMP2 =    -0.30017737467954D+03
 CCSD(T)
 CCSD(T)= -0.30018299130D+03

 Unable to determine electronic state:  an orbital has unidentified symmetry.
 Alpha  occ. eigenvalues --  -20.47983 -20.47983 -20.46794 -20.46794  -1.29395
 Alpha  occ. eigenvalues --   -1.29384  -0.91400  -0.91318  -0.46715  -0.46703
 Alpha  occ. eigenvalues --   -0.44169  -0.44015  -0.41604  -0.41246  -0.25538
 Alpha  occ. eigenvalues --   -0.25509  -0.07673
 Alpha virt. eigenvalues --    0.02453   0.49408   0.52119   0.87068   0.92605
 Alpha virt. eigenvalues --    0.93304   0.93439   0.93542   0.93680   0.95235
 Alpha virt. eigenvalues --    1.01806   1.02388   1.02601   1.03111   1.03306

 Mulliken charges and spin densities:
               1          2
     1  O   -0.211162   0.264992
     2  O   -0.288838   0.235008
     3  O   -0.288838   0.235008
     4  O   -0.211162   0.264992
 Sum of Mulliken charges =  -1.00000   1.00000

 Dipole moment (field-independent basis, Debye):
    X=             -0.0000    Y=              0.0000    Z=              0.0000  Tot=              0.0000
 Quadrupole moment (field-independent basis, Debye-Ang):
   XX=            -21.4484   YY=            -23.7646   ZZ=            -64.2057
   XY=              0.0000   XZ=              0.0000   YZ=              0.0000

 675\CCSD=-300.1283461\CCSD(T)=-300.1829913\RMSD=1.783e-09\PG=D*H [C*(O
 Normal termination of Gaussian 16 at Sat Jan 14 23:45:17 2023.
