 Gaussian 16, Revision A.03,
 Gaussian 16:  ES64L-G16RevA.03 25-Dec-2016

 ---------------------------------------------------------------
 #p ROCCSD(T)/cc-pVTZ Guess=Read SCF=(VeryTight,CDIIS,VShift=10)
 ---------------------------------------------------------------

 ---------
 O2_O2_292
 ---------
 Symbolic Z-matrix:
 Charge = -1 Multiplicity = 2

                         Standard orientation:
 ---------------------------------------------------------------------
 Center     Atomic      Atomic             Coordinates (Angstroms)
 Number     Number       Type             X           Y           Z
 ---------------------------------------------------------------------
      1          8           0        0.000000    0.000000    2.859729
      2          8           0        0.000000    0.000000    4.212109
      3          8           0        0.000000    0.000000   -4.212109
      4          8           0        0.000000    0.000000   -2.859729
 ---------------------------------------------------------------------

 SCF Done:  E(ROHF) =  -299.130984339     A.U. after    8 cycles
 E2 =    -0.1047555144D+01 EUMP2 =    -0.30017853948367D+03
 CCSD(T)
 CCSD(T)= -0.30018219190D+03

 Unable to determine electronic state:  an orbital has unidentified symmetry.
 Alpha  occ. eigenvalues --  -20.48849 -20.48849 -20.48144 -20.48144  -1.30485
 Alpha  occ. eigenvalues --   -1.30483  -0.92495  -0.92473  -0.47801  -0.47801
 Alpha  occ. eigenvalues --   -0.45236  -0.45232  -0.42597  -0.42443  -0.26636
 Alpha  occ. eigenvalues --   -0.26636  -0.07563
 Alpha virt. eigenvalues --    0.00098   0.49659   0.49702   0.89638   0.89732
 Alpha virt. eigenvalues --    0.92355   0.92357   0.92492   0.92494   0.95756
 Alpha virt. eigenvalues --    0.95813   1.01626   1.01630   1.01833   1.01837

 Mulliken charges and spin densities:
               1          2
     1  O   -0.226607   0.259253
     2  O   -0.273393   0.240747
     3  O   -0.273393   0.240747
     4  O   -0.226607   0.259253
 Sum of Mulliken charges =  -1.00000   1.00000

 Dipole moment (field-independent basis, Debye):
    X=             -0.0000    Y=             -0.0000    Z=             -0.0000  Tot=              0.0000
 Quadrupole moment (field-independent basis, Debye-Ang):
   XX=            -21.4413   YY=            -23.7605   ZZ=            -87.6406
   XY=              0.0000   XZ=              0.0000   YZ=              0.0000

 360747\CCSD=-300.1275459\CCSD(T)=-300.1821919\RMSD=1.056e-09\PG=D*H [C
 Normal termination of Gaussian 16 at Sun Jan 15 02:17:28 2023.
