 Gaussian 16, Revision A.03,
 Gaussian 16:  ES64L-G16RevA.03 25-Dec-2016

 ---------------------------------------------------------------
 #p ROCCSD(T)/cc-pVTZ Guess=Read SCF=(VeryTight,CDIIS,VShift=10)
 ---------------------------------------------------------------

 ---------
 O2_O2_112
 ---------
 Symbolic Z-matrix:
 Charge = -1 Multiplicity = 2

                         Standard orientation:
 ---------------------------------------------------------------------
 Center     Atomic      Atomic             Coordinates (Angstroms)
 Number     Number       Type             X           Y           Z
 ---------------------------------------------------------------------
      1          8           0        0.000000    0.000000    1.585456
      2          8           0        0.000000    0.000000    2.937836
      3          8           0        0.000000    0.000000   -2.937836
      4          8           0        0.000000    0.000000   -1.585456
 ---------------------------------------------------------------------

 SCF Done:  E(ROHF) =  -298.961290361     A.U. after   11 cycles
 E2 =    -0.1616554034D+01 EUMP2 =    -0.30057784439467D+03
 CCSD(T)
 CCSD(T)= -0.30022665786D+03

 Unable to determine electronic state:  partially filled degenerate orbitals.
 Alpha  occ. eigenvalues --  -20.49687 -20.49686 -20.46455 -20.46455  -1.29448
 Alpha  occ. eigenvalues --   -1.29375  -0.91403  -0.90970  -0.48314  -0.48193
 Alpha  occ. eigenvalues --   -0.44398  -0.43352  -0.40007  -0.39226  -0.26992
 Alpha  occ. eigenvalues --   -0.26855  -0.07006
 Alpha virt. eigenvalues --    0.05822   0.48266   0.54519   0.83936   0.91775
 Alpha virt. eigenvalues --    0.92829   0.93732   0.93981   0.94740   0.95748
 Alpha virt. eigenvalues --    1.00200   1.02327   1.05581   1.07697   1.12903

 Mulliken charges and spin densities:
               1          2
     1  O   -0.184005   0.299890
     2  O   -0.315995   0.200110
     3  O   -0.315995   0.200110
     4  O   -0.184005   0.299890
 Sum of Mulliken charges =  -1.00000   1.00000

 Dipole moment (field-independent basis, Debye):
    X=             -0.0000    Y=              0.0000    Z=              0.0000  Tot=              0.0000
 Quadrupole moment (field-independent basis, Debye-Ang):
   XX=            -22.4778   YY=            -23.0912   ZZ=            -53.9217
   XY=              0.0000   XZ=              0.0000   YZ=              0.0000

 392647\CCSD=-300.0915432\CCSD(T)=-300.2266579\RMSD=6.228e-09\PG=D*H [C
 Normal termination of Gaussian 16 at Sat Jan 14 22:13:18 2023.
