 Gaussian 16, Revision A.03,
 Gaussian 16:  ES64L-G16RevA.03 25-Dec-2016

 ---------------------------------------------------------------
 #p ROCCSD(T)/cc-pVTZ Guess=Read SCF=(VeryTight,CDIIS,VShift=10)
 ---------------------------------------------------------------

 ---------
 O2_O2_294
 ---------
 Symbolic Z-matrix:
 Charge = -1 Multiplicity = 2

                         Standard orientation:
 ---------------------------------------------------------------------
 Center     Atomic      Atomic             Coordinates (Angstroms)
 Number     Number       Type             X           Y           Z
 ---------------------------------------------------------------------
      1          8           0        0.000000    0.000000    2.873887
      2          8           0        0.000000    0.000000    4.226267
      3          8           0        0.000000    0.000000   -4.226267
      4          8           0        0.000000    0.000000   -2.873887
 ---------------------------------------------------------------------

 SCF Done:  E(ROHF) =  -299.130980502     A.U. after    8 cycles
 E2 =    -0.1047579924D+01 EUMP2 =    -0.30017856042598D+03
 CCSD(T)
 CCSD(T)= -0.30018218805D+03

 Unable to determine electronic state:  an orbital has unidentified symmetry.
 Alpha  occ. eigenvalues --  -20.48862 -20.48862 -20.48162 -20.48162  -1.30500
 Alpha  occ. eigenvalues --   -1.30498  -0.92511  -0.92489  -0.47817  -0.47816
 Alpha  occ. eigenvalues --   -0.45251  -0.45248  -0.42611  -0.42459  -0.26651
 Alpha  occ. eigenvalues --   -0.26651  -0.07562
 Alpha virt. eigenvalues --    0.00067   0.49645   0.49684   0.89626   0.89712
 Alpha virt. eigenvalues --    0.92340   0.92342   0.92478   0.92479   0.95742
 Alpha virt. eigenvalues --    0.95793   1.01611   1.01614   1.01818   1.01821

 Mulliken charges and spin densities:
               1          2
     1  O   -0.226793   0.259181
     2  O   -0.273207   0.240819
     3  O   -0.273207   0.240819
     4  O   -0.226793   0.259181
 Sum of Mulliken charges =  -1.00000   1.00000

 Dipole moment (field-independent basis, Debye):
    X=             -0.0000    Y=             -0.0000    Z=             -0.0000  Tot=              0.0000
 Quadrupole moment (field-independent basis, Debye-Ang):
   XX=            -21.4412   YY=            -23.7605   ZZ=            -88.1131
   XY=              0.0000   XZ=              0.0000   YZ=              0.0000

 360682\CCSD=-300.1275417\CCSD(T)=-300.182188\RMSD=1.041e-09\PG=D*H [C*
 Normal termination of Gaussian 16 at Sun Jan 15 02:20:01 2023.
