 Gaussian 16, Revision A.03,
 Gaussian 16:  ES64L-G16RevA.03 25-Dec-2016

 ---------------------------------------------------------------
 #p ROCCSD(T)/cc-pVTZ Guess=Read SCF=(VeryTight,CDIIS,VShift=10)
 ---------------------------------------------------------------

 ---------
 O2_O2_166
 ---------
 Symbolic Z-matrix:
 Charge = -1 Multiplicity = 2

                         Standard orientation:
 ---------------------------------------------------------------------
 Center     Atomic      Atomic             Coordinates (Angstroms)
 Number     Number       Type             X           Y           Z
 ---------------------------------------------------------------------
      1          8           0        0.000000    0.000000    1.967738
      2          8           0        0.000000    0.000000    3.320118
      3          8           0        0.000000    0.000000   -3.320118
      4          8           0        0.000000    0.000000   -1.967738
 ---------------------------------------------------------------------

 SCF Done:  E(ROHF) =  -299.131940359     A.U. after    8 cycles
 E2 =    -0.1045407941D+01 EUMP2 =    -0.30017734830068D+03
 CCSD(T)
 CCSD(T)= -0.30018330314D+03

 Unable to determine electronic state:  an orbital has unidentified symmetry.
 Alpha  occ. eigenvalues --  -20.47864 -20.47863 -20.46586 -20.46586  -1.29234
 Alpha  occ. eigenvalues --   -1.29219  -0.91243  -0.91135  -0.46556  -0.46537
 Alpha  occ. eigenvalues --   -0.44033  -0.43805  -0.41463  -0.41058  -0.25380
 Alpha  occ. eigenvalues --   -0.25335  -0.07707
 Alpha virt. eigenvalues --    0.02832   0.49101   0.52670   0.85875   0.92905
 Alpha virt. eigenvalues --    0.93386   0.93519   0.93769   0.93905   0.95051
 Alpha virt. eigenvalues --    1.02348   1.02567   1.03506   1.03696   1.04620

 Mulliken charges and spin densities:
               1          2
     1  O   -0.208493   0.265865
     2  O   -0.291507   0.234135
     3  O   -0.291507   0.234135
     4  O   -0.208493   0.265865
 Sum of Mulliken charges =  -1.00000   1.00000

 Dipole moment (field-independent basis, Debye):
    X=             -0.0000    Y=              0.0000    Z=             -0.0000  Tot=              0.0000
 Quadrupole moment (field-independent basis, Debye-Ang):
   XX=            -21.4510   YY=            -23.7654   ZZ=            -61.9225
   XY=              0.0000   XZ=              0.0000   YZ=              0.0000

 374033\CCSD=-300.128646\CCSD(T)=-300.1833031\RMSD=2.523e-09\PG=D*H [C*
 Normal termination of Gaussian 16 at Sat Jan 14 23:28:10 2023.
