 Gaussian 16, Revision A.03,
 Gaussian 16:  ES64L-G16RevA.03 25-Dec-2016

 ---------------------------------------------------------------
 #p ROCCSD(T)/cc-pVTZ Guess=Read SCF=(VeryTight,CDIIS,VShift=10)
 ---------------------------------------------------------------

 ---------
 O2_O2_134
 ---------
 Symbolic Z-matrix:
 Charge = -1 Multiplicity = 2

                         Standard orientation:
 ---------------------------------------------------------------------
 Center     Atomic      Atomic             Coordinates (Angstroms)
 Number     Number       Type             X           Y           Z
 ---------------------------------------------------------------------
      1          8           0        0.000000    0.000000    1.741201
      2          8           0        0.000000    0.000000    3.093581
      3          8           0        0.000000    0.000000   -3.093581
      4          8           0        0.000000    0.000000   -1.741201
 ---------------------------------------------------------------------

 SCF Done:  E(ROHF) =  -299.132960844     A.U. after    8 cycles
 E2 =    -0.1044644560D+01 EUMP2 =    -0.30017760540419D+03
 CCSD(T)
 CCSD(T)= -0.30018459053D+03

 Unable to determine electronic state:  an orbital has unidentified symmetry.
 Alpha  occ. eigenvalues --  -20.47558 -20.47558 -20.46004 -20.46004  -1.28799
 Alpha  occ. eigenvalues --   -1.28764  -0.90840  -0.90605  -0.46134  -0.46077
 Alpha  occ. eigenvalues --   -0.43729  -0.43155  -0.41091  -0.40523  -0.24969
 Alpha  occ. eigenvalues --   -0.24837  -0.07839
 Alpha virt. eigenvalues --    0.03934   0.48521   0.54174   0.83746   0.93183
 Alpha virt. eigenvalues --    0.93419   0.93537   0.94485   0.94616   0.94844
 Alpha virt. eigenvalues --    1.01904   1.02147   1.05087   1.05251   1.12961

 Mulliken charges and spin densities:
               1          2
     1  O   -0.200582   0.268082
     2  O   -0.299418   0.231918
     3  O   -0.299418   0.231918
     4  O   -0.200582   0.268082
 Sum of Mulliken charges =  -1.00000   1.00000

 Dipole moment (field-independent basis, Debye):
    X=             -0.0000    Y=              0.0000    Z=              0.0000  Tot=              0.0000
 Quadrupole moment (field-independent basis, Debye-Ang):
   XX=            -21.4613   YY=            -23.7679   ZZ=            -56.6761
   XY=              0.0000   XZ=              0.0000   YZ=              0.0000

 387441\CCSD=-300.1298726\CCSD(T)=-300.1845905\RMSD=6.882e-09\PG=D*H [C
 Normal termination of Gaussian 16 at Sat Jan 14 22:44:24 2023.
