 Gaussian 16, Revision A.03,
 Gaussian 16:  ES64L-G16RevA.03 25-Dec-2016

 ---------------------------------------------------------------
 #p ROCCSD(T)/cc-pVTZ Guess=Read SCF=(VeryTight,CDIIS,VShift=10)
 ---------------------------------------------------------------

 --------
 O2_O2_76
 --------
 Symbolic Z-matrix:
 Charge = -1 Multiplicity = 2

                         Standard orientation:
 ---------------------------------------------------------------------
 Center     Atomic      Atomic             Coordinates (Angstroms)
 Number     Number       Type             X           Y           Z
 ---------------------------------------------------------------------
      1          8           0        0.000000    0.000000    1.330602
      2          8           0        0.000000    0.000000    2.682982
      3          8           0        0.000000    0.000000   -2.682982
      4          8           0        0.000000    0.000000   -1.330602
 ---------------------------------------------------------------------

 SCF Done:  E(ROHF) =  -298.980950189     A.U. after   12 cycles
 E2 =    -0.1492634847D+01 EUMP2 =    -0.30047358503613D+03
 CCSD(T)
 CCSD(T)= -0.30022887831D+03

 Unable to determine electronic state:  an orbital has unidentified symmetry.
 Alpha  occ. eigenvalues --  -20.49984 -20.49983 -20.45283 -20.45283  -1.29092
 Alpha  occ. eigenvalues --   -1.28836  -0.91293  -0.89977  -0.48044  -0.47631
 Alpha  occ. eigenvalues --   -0.44714  -0.41870  -0.39765  -0.38392  -0.26583
 Alpha  occ. eigenvalues --   -0.26038  -0.07641
 Alpha virt. eigenvalues --    0.07733   0.49683   0.56368   0.90513   0.92175
 Alpha virt. eigenvalues --    0.92235   0.92742   0.94895   0.95130   0.96858
 Alpha virt. eigenvalues --    0.99647   1.01665   1.09858   1.12013   1.13081

 Mulliken charges and spin densities:
               1          2
     1  O   -0.160938   0.316074
     2  O   -0.339062   0.183926
     3  O   -0.339062   0.183926
     4  O   -0.160938   0.316074
 Sum of Mulliken charges =  -1.00000   1.00000

 Dipole moment (field-independent basis, Debye):
    X=             -0.0000    Y=              0.0000    Z=              0.0000  Tot=              0.0000
 Quadrupole moment (field-independent basis, Debye-Ang):
   XX=            -22.5352   YY=            -23.1215   ZZ=            -49.2005
   XY=              0.0000   XZ=              0.0000   YZ=              0.0000

 326\CCSD=-300.1015048\CCSD(T)=-300.2288783\RMSD=4.010e-10\PG=D*H [C*(O
 Normal termination of Gaussian 16 at Sat Jan 14 21:17:45 2023.
