 Gaussian 16, Revision A.03,
 Gaussian 16:  ES64L-G16RevA.03 25-Dec-2016

 ---------------------------------------------------------------
 #p ROCCSD(T)/cc-pVTZ Guess=Read SCF=(VeryTight,CDIIS,VShift=10)
 ---------------------------------------------------------------

 --------
 O2_O2_36
 --------
 Symbolic Z-matrix:
 Charge = -1 Multiplicity = 2

                         Standard orientation:
 ---------------------------------------------------------------------
 Center     Atomic      Atomic             Coordinates (Angstroms)
 Number     Number       Type             X           Y           Z
 ---------------------------------------------------------------------
      1          8           0        0.000000    0.000000    1.047430
      2          8           0        0.000000    0.000000    2.399810
      3          8           0        0.000000    0.000000   -2.399810
      4          8           0        0.000000    0.000000   -1.047430
 ---------------------------------------------------------------------

 SCF Done:  E(ROHF) =  -299.013257998     A.U. after    8 cycles
 E2 =    -0.1348207656D+01 EUMP2 =    -0.30036146565383D+03
 CCSD(T)
 CCSD(T)= -0.30023012974D+03

 Unable to determine electronic state:  an orbital has unidentified symmetry.
 Alpha  occ. eigenvalues --  -20.50787 -20.50785 -20.43112 -20.43112  -1.29139
 Alpha  occ. eigenvalues --   -1.27913  -0.92548  -0.87649  -0.48357  -0.46667
 Alpha  occ. eigenvalues --   -0.46610  -0.39985  -0.38050  -0.36898  -0.26229
 Alpha  occ. eigenvalues --   -0.24475  -0.09194
 Alpha virt. eigenvalues --    0.11140   0.51337   0.59334   0.90162   0.91658
 Alpha virt. eigenvalues --    0.92851   0.94074   0.96490   0.98148   1.00538
 Alpha virt. eigenvalues --    1.02489   1.10450   1.12844   1.15156   1.15377

 Mulliken charges and spin densities:
               1          2
     1  O   -0.108434   0.342689
     2  O   -0.391566   0.157311
     3  O   -0.391566   0.157311
     4  O   -0.108434   0.342689
 Sum of Mulliken charges =  -1.00000   1.00000

 Dipole moment (field-independent basis, Debye):
    X=             -0.0000    Y=              0.0000    Z=             -0.0000  Tot=              0.0000
 Quadrupole moment (field-independent basis, Debye-Ang):
   XX=            -22.6088   YY=            -23.1521   ZZ=            -45.3141
   XY=              0.0000   XZ=              0.0000   YZ=              0.0000

 2\CCSD=-300.1168103\CCSD(T)=-300.2301297\RMSD=9.749e-09\PG=D*H [C*(O1O
 Normal termination of Gaussian 16 at Sat Jan 14 20:17:21 2023.
