 Gaussian 16, Revision A.03,
 Gaussian 16:  ES64L-G16RevA.03 25-Dec-2016

 ---------------------------------------------------------------
 #p ROCCSD(T)/cc-pVTZ Guess=Read SCF=(VeryTight,CDIIS,VShift=10)
 ---------------------------------------------------------------

 --------
 O2_O2_17
 --------
 Symbolic Z-matrix:
 Charge = -1 Multiplicity = 2

                         Standard orientation:
 ---------------------------------------------------------------------
 Center     Atomic      Atomic             Coordinates (Angstroms)
 Number     Number       Type             X           Y           Z
 ---------------------------------------------------------------------
      1          8           0        0.000000    0.000000    0.912923
      2          8           0        0.000000    0.000000    2.265304
      3          8           0        0.000000    0.000000   -2.265304
      4          8           0        0.000000    0.000000   -0.912923
 ---------------------------------------------------------------------

 SCF Done:  E(ROHF) =  -299.020984850     A.U. after    9 cycles
 E2 =    -0.1283315295D+01 EUMP2 =    -0.30030430014562D+03
 CCSD(T)
 CCSD(T)= -0.30021842233D+03

 Unable to determine electronic state:  an orbital has unidentified symmetry.
 Alpha  occ. eigenvalues --  -20.51314 -20.51310 -20.41376 -20.41376  -1.29886
 Alpha  occ. eigenvalues --   -1.27124  -0.94732  -0.85479  -0.49325  -0.48512
 Alpha  occ. eigenvalues --   -0.45870  -0.40733  -0.35740  -0.34069  -0.26073
 Alpha  occ. eigenvalues --   -0.23197  -0.10493
 Alpha virt. eigenvalues --    0.13651   0.51869   0.61775   0.90990   0.91495
 Alpha virt. eigenvalues --    0.93563   0.93839   0.97296   0.98911   1.01855
 Alpha virt. eigenvalues --    1.03862   1.11955   1.12415   1.17139   1.19427

 Mulliken charges and spin densities:
               1          2
     1  O   -0.065536   0.357575
     2  O   -0.434464   0.142425
     3  O   -0.434464   0.142425
     4  O   -0.065536   0.357575
 Sum of Mulliken charges =  -1.00000   1.00000

 Dipole moment (field-independent basis, Debye):
    X=             -0.0000    Y=              0.0000    Z=              0.0000  Tot=              0.0000
 Quadrupole moment (field-independent basis, Debye-Ang):
   XX=            -22.5981   YY=            -23.1234   ZZ=            -44.3738
   XY=              0.0000   XZ=              0.0000   YZ=              0.0000

 17733\CCSD=-300.1140974\CCSD(T)=-300.2184223\RMSD=6.724e-09\PG=D*H [C*
 Normal termination of Gaussian 16 at Sat Jan 14 19:49:06 2023.
