 Gaussian 16, Revision A.03,
 Gaussian 16:  ES64L-G16RevA.03 25-Dec-2016

 ---------------------------------------------------------------
 #p ROCCSD(T)/cc-pVTZ Guess=Read SCF=(VeryTight,CDIIS,VShift=10)
 ---------------------------------------------------------------

 ---------
 O2_O2_122
 ---------
 Symbolic Z-matrix:
 Charge = -1 Multiplicity = 2

                         Standard orientation:
 ---------------------------------------------------------------------
 Center     Atomic      Atomic             Coordinates (Angstroms)
 Number     Number       Type             X           Y           Z
 ---------------------------------------------------------------------
      1          8           0        0.000000    0.000000    1.656249
      2          8           0        0.000000    0.000000    3.008629
      3          8           0        0.000000    0.000000   -3.008629
      4          8           0        0.000000    0.000000   -1.656249
 ---------------------------------------------------------------------

 SCF Done:  E(ROHF) =  -299.133543110     A.U. after    8 cycles
 E2 =    -0.1044314112D+01 EUMP2 =    -0.30017785722169D+03
 CCSD(T)
 CCSD(T)= -0.30018532643D+03

 Unable to determine electronic state:  an orbital has unidentified symmetry.
 Alpha  occ. eigenvalues --  -20.47440 -20.47439 -20.45754 -20.45754  -1.28622
 Alpha  occ. eigenvalues --   -1.28571  -0.90692  -0.90364  -0.45965  -0.45880
 Alpha  occ. eigenvalues --   -0.43646  -0.42841  -0.40944  -0.40289  -0.24809
 Alpha  occ. eigenvalues --   -0.24616  -0.07916
 Alpha virt. eigenvalues --    0.04429   0.48570   0.54770   0.83920   0.93130
 Alpha virt. eigenvalues --    0.93327   0.93432   0.94812   0.94844   0.94939
 Alpha virt. eigenvalues --    1.01612   1.01865   1.05997   1.06144   1.13201

 Mulliken charges and spin densities:
               1          2
     1  O   -0.196944   0.268888
     2  O   -0.303056   0.231112
     3  O   -0.303056   0.231112
     4  O   -0.196944   0.268888
 Sum of Mulliken charges =  -1.00000   1.00000

 Dipole moment (field-independent basis, Debye):
    X=             -0.0000    Y=              0.0000    Z=             -0.0000  Tot=              0.0000
 Quadrupole moment (field-independent basis, Debye-Ang):
   XX=            -21.4674   YY=            -23.7690   ZZ=            -54.8486
   XY=              0.0000   XZ=              0.0000   YZ=              0.0000

 395005\CCSD=-300.1305742\CCSD(T)=-300.1853264\RMSD=9.397e-09\PG=D*H [C
 Normal termination of Gaussian 16 at Sat Jan 14 22:28:15 2023.
