 Gaussian 16, Revision A.03,
 Gaussian 16:  ES64L-G16RevA.03 25-Dec-2016

 ---------------------------------------------------------------
 #p ROCCSD(T)/cc-pVTZ Guess=Read SCF=(VeryTight,CDIIS,VShift=10)
 ---------------------------------------------------------------

 --------
 O2_O2_94
 --------
 Symbolic Z-matrix:
 Charge = -1 Multiplicity = 2

                         Standard orientation:
 ---------------------------------------------------------------------
 Center     Atomic      Atomic             Coordinates (Angstroms)
 Number     Number       Type             X           Y           Z
 ---------------------------------------------------------------------
      1          8           0        0.000000    0.000000    1.458029
      2          8           0        0.000000    0.000000    2.810409
      3          8           0        0.000000    0.000000   -2.810409
      4          8           0        0.000000    0.000000   -1.458029
 ---------------------------------------------------------------------

 SCF Done:  E(ROHF) =  -298.969846902     A.U. after   11 cycles
 E2 =    -0.1555661120D+01 EUMP2 =    -0.30052550802227D+03
 CCSD(T)
 CCSD(T)= -0.30022745092D+03

 Unable to determine electronic state:  an orbital has unidentified symmetry.
 Alpha  occ. eigenvalues --  -20.49787 -20.49786 -20.45925 -20.45925  -1.29253
 Alpha  occ. eigenvalues --   -1.29120  -0.91287  -0.90542  -0.48152  -0.47929
 Alpha  occ. eigenvalues --   -0.44460  -0.42730  -0.39863  -0.38845  -0.26779
 Alpha  occ. eigenvalues --   -0.26487  -0.07265
 Alpha virt. eigenvalues --    0.06687   0.48879   0.55400   0.86937   0.91206
 Alpha virt. eigenvalues --    0.92531   0.93277   0.94547   0.94803   0.96297
 Alpha virt. eigenvalues --    0.99820   1.01898   1.07525   1.09658   1.13025

 Mulliken charges and spin densities:
               1          2
     1  O   -0.174189   0.307131
     2  O   -0.325811   0.192869
     3  O   -0.325811   0.192869
     4  O   -0.174189   0.307131
 Sum of Mulliken charges =  -1.00000   1.00000

 Dipole moment (field-independent basis, Debye):
    X=             -0.0000    Y=              0.0000    Z=             -0.0000  Tot=              0.0000
 Quadrupole moment (field-independent basis, Debye-Ang):
   XX=            -22.5030   YY=            -23.1046   ZZ=            -51.4543
   XY=              0.0000   XZ=              0.0000   YZ=              0.0000

 574\CCSD=-300.095762\CCSD(T)=-300.2274509\RMSD=7.962e-09\PG=D*H [C*(O1
 Normal termination of Gaussian 16 at Sat Jan 14 21:44:38 2023.
