 Gaussian 16, Revision A.03,
 Gaussian 16:  ES64L-G16RevA.03 25-Dec-2016

 ---------------------------------------------------------------
 #p ROCCSD(T)/cc-pVTZ Guess=Read SCF=(VeryTight,CDIIS,VShift=10)
 ---------------------------------------------------------------

 ---------
 O2_O2_244
 ---------
 Symbolic Z-matrix:
 Charge = -1 Multiplicity = 2

                         Standard orientation:
 ---------------------------------------------------------------------
 Center     Atomic      Atomic             Coordinates (Angstroms)
 Number     Number       Type             X           Y           Z
 ---------------------------------------------------------------------
      1          8           0        0.000000    0.000000    2.519923
      2          8           0        0.000000    0.000000    3.872303
      3          8           0        0.000000    0.000000   -3.872303
      4          8           0        0.000000    0.000000   -2.519923
 ---------------------------------------------------------------------

 SCF Done:  E(ROHF) =  -299.131117472     A.U. after    8 cycles
 E2 =    -0.1046885076D+01 EUMP2 =    -0.30017800254822D+03
 CCSD(T)
 CCSD(T)= -0.30018233263D+03

 Unable to determine electronic state:  an orbital has unidentified symmetry.
 Alpha  occ. eigenvalues --  -20.48521 -20.48521 -20.47657 -20.47657  -1.30083
 Alpha  occ. eigenvalues --   -1.30080  -0.92090  -0.92056  -0.47400  -0.47399
 Alpha  occ. eigenvalues --   -0.44826  -0.44809  -0.42225  -0.42012  -0.26229
 Alpha  occ. eigenvalues --   -0.26227  -0.07588
 Alpha virt. eigenvalues --    0.00940   0.49933   0.50292   0.89725   0.90493
 Alpha virt. eigenvalues --    0.92742   0.92757   0.92880   0.92894   0.95975
 Alpha virt. eigenvalues --    0.96544   1.02014   1.02057   1.02221   1.02263

 Mulliken charges and spin densities:
               1          2
     1  O   -0.221384   0.261271
     2  O   -0.278616   0.238729
     3  O   -0.278616   0.238729
     4  O   -0.221384   0.261271
 Sum of Mulliken charges =  -1.00000   1.00000

 Dipole moment (field-independent basis, Debye):
    X=             -0.0000    Y=             -0.0000    Z=             -0.0000  Tot=              0.0000
 Quadrupole moment (field-independent basis, Debye-Ang):
   XX=            -21.4427   YY=            -23.7617   ZZ=            -76.9019
   XY=              0.0000   XZ=              0.0000   YZ=              0.0000

 362881\CCSD=-300.1276953\CCSD(T)=-300.1823326\RMSD=1.449e-09\PG=D*H [C
 Normal termination of Gaussian 16 at Sun Jan 15 01:12:12 2023.
