 Gaussian 16, Revision A.03,
 Gaussian 16:  ES64L-G16RevA.03 25-Dec-2016

 ---------------------------------------------------------------
 #p ROCCSD(T)/cc-pVTZ Guess=Read SCF=(VeryTight,CDIIS,VShift=10)
 ---------------------------------------------------------------

 ---------
 O2_O2_232
 ---------
 Symbolic Z-matrix:
 Charge = -1 Multiplicity = 2

                         Standard orientation:
 ---------------------------------------------------------------------
 Center     Atomic      Atomic             Coordinates (Angstroms)
 Number     Number       Type             X           Y           Z
 ---------------------------------------------------------------------
      1          8           0        0.000000    0.000000    2.434971
      2          8           0        0.000000    0.000000    3.787351
      3          8           0        0.000000    0.000000   -3.787351
      4          8           0        0.000000    0.000000   -2.434971
 ---------------------------------------------------------------------

 SCF Done:  E(ROHF) =  -299.131171277     A.U. after    8 cycles
 E2 =    -0.1046691375D+01 EUMP2 =    -0.30017786265210D+03
 CCSD(T)
 CCSD(T)= -0.30018239188D+03

 Unable to determine electronic state:  an orbital has unidentified symmetry.
 Alpha  occ. eigenvalues --  -20.48430 -20.48429 -20.47517 -20.47517  -1.29970
 Alpha  occ. eigenvalues --   -1.29966  -0.91975  -0.91938  -0.47286  -0.47285
 Alpha  occ. eigenvalues --   -0.44712  -0.44686  -0.42121  -0.41888  -0.26114
 Alpha  occ. eigenvalues --   -0.26111  -0.07598
 Alpha virt. eigenvalues --    0.01182   0.49953   0.50514   0.89606   0.90811
 Alpha virt. eigenvalues --    0.92848   0.92874   0.92986   0.93011   0.95946
 Alpha virt. eigenvalues --    0.96898   1.02113   1.02190   1.02320   1.02394

 Mulliken charges and spin densities:
               1          2
     1  O   -0.219813   0.261868
     2  O   -0.280187   0.238132
     3  O   -0.280187   0.238132
     4  O   -0.219813   0.261868
 Sum of Mulliken charges =  -1.00000   1.00000

 Dipole moment (field-independent basis, Debye):
    X=             -0.0000    Y=             -0.0000    Z=              0.0000  Tot=              0.0000
 Quadrupole moment (field-independent basis, Debye-Ang):
   XX=            -21.4433   YY=            -23.7621   ZZ=            -74.3980
   XY=              0.0000   XZ=              0.0000   YZ=              0.0000

 36368\CCSD=-300.127756\CCSD(T)=-300.1823919\RMSD=1.533e-09\PG=D*H [C*(
 Normal termination of Gaussian 16 at Sun Jan 15 00:55:29 2023.
