 Gaussian 16, Revision A.03,
 Gaussian 16:  ES64L-G16RevA.03 25-Dec-2016

 ---------------------------------------------------------------
 #p ROCCSD(T)/cc-pVTZ Guess=Read SCF=(VeryTight,CDIIS,VShift=10)
 ---------------------------------------------------------------

 ---------
 O2_O2_264
 ---------
 Symbolic Z-matrix:
 Charge = -1 Multiplicity = 2

                         Standard orientation:
 ---------------------------------------------------------------------
 Center     Atomic      Atomic             Coordinates (Angstroms)
 Number     Number       Type             X           Y           Z
 ---------------------------------------------------------------------
      1          8           0        0.000000    0.000000    2.661509
      2          8           0        0.000000    0.000000    4.013889
      3          8           0        0.000000    0.000000   -4.013889
      4          8           0        0.000000    0.000000   -2.661509
 ---------------------------------------------------------------------

 SCF Done:  E(ROHF) =  -299.131050122     A.U. after    8 cycles
 E2 =    -0.1047183147D+01 EUMP2 =    -0.30017823326820D+03
 CCSD(T)
 CCSD(T)= -0.30018226009D+03

 Unable to determine electronic state:  an orbital has unidentified symmetry.
 Alpha  occ. eigenvalues --  -20.48665 -20.48664 -20.47873 -20.47873  -1.30260
 Alpha  occ. eigenvalues --   -1.30258  -0.92268  -0.92241  -0.47577  -0.47576
 Alpha  occ. eigenvalues --   -0.45006  -0.44997  -0.42388  -0.42203  -0.26408
 Alpha  occ. eigenvalues --   -0.26408  -0.07576
 Alpha virt. eigenvalues --    0.00567   0.49843   0.50001   0.89759   0.90097
 Alpha virt. eigenvalues --    0.92573   0.92579   0.92711   0.92716   0.95927
 Alpha virt. eigenvalues --    0.96156   1.01848   1.01864   1.02055   1.02070

 Mulliken charges and spin densities:
               1          2
     1  O   -0.223750   0.260362
     2  O   -0.276250   0.239638
     3  O   -0.276250   0.239638
     4  O   -0.223750   0.260362
 Sum of Mulliken charges =  -1.00000   1.00000

 Dipole moment (field-independent basis, Debye):
    X=             -0.0000    Y=              0.0000    Z=             -0.0000  Tot=              0.0000
 Quadrupole moment (field-independent basis, Debye-Ang):
   XX=            -21.4420   YY=            -23.7612   ZZ=            -81.2359
   XY=              0.0000   XZ=              0.0000   YZ=              0.0000

 361835\CCSD=-300.1276196\CCSD(T)=-300.1822601\RMSD=1.275e-09\PG=D*H [C
 Normal termination of Gaussian 16 at Sun Jan 15 01:39:04 2023.
