 Gaussian 16, Revision A.03,
 Gaussian 16:  ES64L-G16RevA.03 25-Dec-2016

 ---------------------------------------------------------------
 #p ROCCSD(T)/cc-pVTZ Guess=Read SCF=(VeryTight,CDIIS,VShift=10)
 ---------------------------------------------------------------

 ---------
 O2_O2_138
 ---------
 Symbolic Z-matrix:
 Charge = -1 Multiplicity = 2

                         Standard orientation:
 ---------------------------------------------------------------------
 Center     Atomic      Atomic             Coordinates (Angstroms)
 Number     Number       Type             X           Y           Z
 ---------------------------------------------------------------------
      1          8           0        0.000000    0.000000    1.769518
      2          8           0        0.000000    0.000000    3.121898
      3          8           0        0.000000    0.000000   -3.121898
      4          8           0        0.000000    0.000000   -1.769518
 ---------------------------------------------------------------------

 SCF Done:  E(ROHF) =  -299.132794624     A.U. after    8 cycles
 E2 =    -0.1044748033D+01 EUMP2 =    -0.30017754265728D+03
 CCSD(T)
 CCSD(T)= -0.30018437986D+03

 Unable to determine electronic state:  an orbital has unidentified symmetry.
 Alpha  occ. eigenvalues --  -20.47598 -20.47597 -20.46083 -20.46082  -1.28857
 Alpha  occ. eigenvalues --   -1.28825  -0.90891  -0.90680  -0.46189  -0.46140
 Alpha  occ. eigenvalues --   -0.43762  -0.43250  -0.41139  -0.40597  -0.25022
 Alpha  occ. eigenvalues --   -0.24905  -0.07818
 Alpha virt. eigenvalues --    0.03781   0.48547   0.53979   0.83843   0.93182
 Alpha virt. eigenvalues --    0.93434   0.93556   0.94382   0.94515   0.94852
 Alpha virt. eigenvalues --    1.01989   1.02227   1.04828   1.04997   1.12707

 Mulliken charges and spin densities:
               1          2
     1  O   -0.201698   0.267806
     2  O   -0.298302   0.232194
     3  O   -0.298302   0.232194
     4  O   -0.201698   0.267806
 Sum of Mulliken charges =  -1.00000   1.00000

 Dipole moment (field-independent basis, Debye):
    X=             -0.0000    Y=              0.0000    Z=             -0.0000  Tot=              0.0000
 Quadrupole moment (field-independent basis, Debye-Ang):
   XX=            -21.4596   YY=            -23.7675   ZZ=            -57.3023
   XY=              0.0000   XZ=              0.0000   YZ=              0.0000

 385268\CCSD=-300.129672\CCSD(T)=-300.1843799\RMSD=6.186e-09\PG=D*H [C*
 Normal termination of Gaussian 16 at Sat Jan 14 22:49:45 2023.
