 Gaussian 16, Revision A.03,
 Gaussian 16:  ES64L-G16RevA.03 25-Dec-2016

 ---------------------------------------------------------------
 #p ROCCSD(T)/cc-pVTZ Guess=Read SCF=(VeryTight,CDIIS,VShift=10)
 ---------------------------------------------------------------

 --------
 O2_O2_18
 --------
 Symbolic Z-matrix:
 Charge = -1 Multiplicity = 2

                         Standard orientation:
 ---------------------------------------------------------------------
 Center     Atomic      Atomic             Coordinates (Angstroms)
 Number     Number       Type             X           Y           Z
 ---------------------------------------------------------------------
      1          8           0        0.000000    0.000000    0.920002
      2          8           0        0.000000    0.000000    2.272383
      3          8           0        0.000000    0.000000   -2.272383
      4          8           0        0.000000    0.000000   -0.920002
 ---------------------------------------------------------------------

 SCF Done:  E(ROHF) =  -299.021119327     A.U. after    9 cycles
 E2 =    -0.1286496967D+01 EUMP2 =    -0.30030761629438D+03
 CCSD(T)
 CCSD(T)= -0.30021960903D+03

 Unable to determine electronic state:  an orbital has unidentified symmetry.
 Alpha  occ. eigenvalues --  -20.51283 -20.51279 -20.41485 -20.41485  -1.29817
 Alpha  occ. eigenvalues --   -1.27175  -0.94570  -0.85620  -0.49244  -0.48394
 Alpha  occ. eigenvalues --   -0.45920  -0.40670  -0.35812  -0.34343  -0.26082
 Alpha  occ. eigenvalues --   -0.23278  -0.10413
 Alpha virt. eigenvalues --    0.13499   0.51851   0.61614   0.90940   0.91501
 Alpha virt. eigenvalues --    0.93595   0.93786   0.97249   0.98865   1.01766
 Alpha virt. eigenvalues --    1.03769   1.11991   1.12446   1.17047   1.19332

 Mulliken charges and spin densities:
               1          2
     1  O   -0.068248   0.356794
     2  O   -0.431752   0.143206
     3  O   -0.431752   0.143206
     4  O   -0.068248   0.356794
 Sum of Mulliken charges =  -1.00000   1.00000

 Dipole moment (field-independent basis, Debye):
    X=             -0.0000    Y=              0.0000    Z=             -0.0000  Tot=              0.0000
 Quadrupole moment (field-independent basis, Debye-Ang):
   XX=            -22.6005   YY=            -23.1265   ZZ=            -44.4015
   XY=              0.0000   XZ=              0.0000   YZ=              0.0000

 87273\CCSD=-300.1147881\CCSD(T)=-300.219609\RMSD=7.218e-09\PG=D*H [C*(
 Normal termination of Gaussian 16 at Sat Jan 14 19:50:32 2023.
