 Gaussian 16, Revision A.03,
 Gaussian 16:  ES64L-G16RevA.03 25-Dec-2016

 ---------------------------------------------------------------
 #p ROCCSD(T)/cc-pVTZ Guess=Read SCF=(VeryTight,CDIIS,VShift=10)
 ---------------------------------------------------------------

 ---------
 O2_O2_200
 ---------
 Symbolic Z-matrix:
 Charge = -1 Multiplicity = 2

                         Standard orientation:
 ---------------------------------------------------------------------
 Center     Atomic      Atomic             Coordinates (Angstroms)
 Number     Number       Type             X           Y           Z
 ---------------------------------------------------------------------
      1          8           0        0.000000    0.000000    2.208433
      2          8           0        0.000000    0.000000    3.560814
      3          8           0        0.000000    0.000000   -3.560814
      4          8           0        0.000000    0.000000   -2.208433
 ---------------------------------------------------------------------

 SCF Done:  E(ROHF) =  -299.131405389     A.U. after    8 cycles
 E2 =    -0.1046114525D+01 EUMP2 =    -0.30017751991327D+03
 CCSD(T)
 CCSD(T)= -0.30018265807D+03

 Unable to determine electronic state:  an orbital has unidentified symmetry.
 Alpha  occ. eigenvalues --  -20.48168 -20.48168 -20.47103 -20.47103  -1.29638
 Alpha  occ. eigenvalues --   -1.29631  -0.91642  -0.91584  -0.46956  -0.46950
 Alpha  occ. eigenvalues --   -0.44390  -0.44311  -0.41820  -0.41522  -0.25780
 Alpha  occ. eigenvalues --   -0.25767  -0.07634
 Alpha virt. eigenvalues --    0.01903   0.49773   0.51351   0.88576   0.91918
 Alpha virt. eigenvalues --    0.93134   0.93238   0.93271   0.93376   0.95589
 Alpha virt. eigenvalues --    0.98874   1.02335   1.02544   1.02650   1.02851

 Mulliken charges and spin densities:
               1          2
     1  O   -0.214969   0.263662
     2  O   -0.285031   0.236338
     3  O   -0.285031   0.236338
     4  O   -0.214969   0.263662
 Sum of Mulliken charges =  -1.00000   1.00000

 Dipole moment (field-independent basis, Debye):
    X=             -0.0000    Y=             -0.0000    Z=              0.0000  Tot=              0.0000
 Quadrupole moment (field-independent basis, Debye-Ang):
   XX=            -21.4457   YY=            -23.7635   ZZ=            -68.0751
   XY=              0.0000   XZ=              0.0000   YZ=              0.0000

 66938\CCSD=-300.1280215\CCSD(T)=-300.1826581\RMSD=1.520e-09\PG=D*H [C*
 Normal termination of Gaussian 16 at Sun Jan 15 00:13:22 2023.
