 Gaussian 16, Revision A.03,
 Gaussian 16:  ES64L-G16RevA.03 25-Dec-2016

 ---------------------------------------------------------------
 #p ROCCSD(T)/cc-pVTZ Guess=Read SCF=(VeryTight,CDIIS,VShift=10)
 ---------------------------------------------------------------

 ---------
 O2_O2_240
 ---------
 Symbolic Z-matrix:
 Charge = -1 Multiplicity = 2

                         Standard orientation:
 ---------------------------------------------------------------------
 Center     Atomic      Atomic             Coordinates (Angstroms)
 Number     Number       Type             X           Y           Z
 ---------------------------------------------------------------------
      1          8           0        0.000000    0.000000    2.491606
      2          8           0        0.000000    0.000000    3.843986
      3          8           0        0.000000    0.000000   -3.843986
      4          8           0        0.000000    0.000000   -2.491606
 ---------------------------------------------------------------------

 SCF Done:  E(ROHF) =  -299.131134034     A.U. after    8 cycles
 E2 =    -0.1046821812D+01 EUMP2 =    -0.30017795584572D+03
 CCSD(T)
 CCSD(T)= -0.30018235075D+03

 Unable to determine electronic state:  an orbital has unidentified symmetry.
 Alpha  occ. eigenvalues --  -20.48491 -20.48491 -20.47611 -20.47611  -1.30046
 Alpha  occ. eigenvalues --   -1.30043  -0.92052  -0.92018  -0.47363  -0.47362
 Alpha  occ. eigenvalues --   -0.44789  -0.44769  -0.42191  -0.41971  -0.26191
 Alpha  occ. eigenvalues --   -0.26189  -0.07591
 Alpha virt. eigenvalues --    0.01019   0.49944   0.50361   0.89696   0.90592
 Alpha virt. eigenvalues --    0.92777   0.92795   0.92915   0.92932   0.95971
 Alpha virt. eigenvalues --    0.96649   1.02048   1.02100   1.02254   1.02305

 Mulliken charges and spin densities:
               1          2
     1  O   -0.220874   0.261465
     2  O   -0.279126   0.238535
     3  O   -0.279126   0.238535
     4  O   -0.220874   0.261465
 Sum of Mulliken charges =  -1.00000   1.00000

 Dipole moment (field-independent basis, Debye):
    X=             -0.0000    Y=              0.0000    Z=              0.0000  Tot=              0.0000
 Quadrupole moment (field-independent basis, Debye-Ang):
   XX=            -21.4429   YY=            -23.7619   ZZ=            -76.0592
   XY=              0.0000   XZ=              0.0000   YZ=              0.0000

 313\CCSD=-300.1277139\CCSD(T)=-300.1823508\RMSD=1.480e-09\PG=D*H [C*(O
 Normal termination of Gaussian 16 at Sun Jan 15 01:06:41 2023.
