 Gaussian 16, Revision A.03,
 Gaussian 16:  ES64L-G16RevA.03 25-Dec-2016

 ---------------------------------------------------------------
 #p ROCCSD(T)/cc-pVTZ Guess=Read SCF=(VeryTight,CDIIS,VShift=10)
 ---------------------------------------------------------------

 -------
 O2_O2_1
 -------
 Symbolic Z-matrix:
 Charge = -1 Multiplicity = 2

                         Standard orientation:
 ---------------------------------------------------------------------
 Center     Atomic      Atomic             Coordinates (Angstroms)
 Number     Number       Type             X           Y           Z
 ---------------------------------------------------------------------
      1          8           0        0.000000    0.000000    0.799655
      2          8           0        0.000000    0.000000    2.152035
      3          8           0        0.000000    0.000000   -2.152035
      4          8           0        0.000000    0.000000   -0.799655
 ---------------------------------------------------------------------

 SCF Done:  E(ROHF) =  -299.000904495     A.U. after   12 cycles
 E2 =    -0.1240061304D+01 EUMP2 =    -0.30024096579884D+03
 CCSD(T)
 CCSD(T)= -0.30018281155D+03

 Unable to determine electronic state:  an orbital has unidentified symmetry.
 Alpha  occ. eigenvalues --  -20.51994 -20.51986 -20.39246 -20.39245  -1.32013
 Alpha  occ. eigenvalues --   -1.26131  -0.98301  -0.82741  -0.51453  -0.50611
 Alpha  occ. eigenvalues --   -0.44890  -0.42473  -0.34384  -0.28215  -0.25849
 Alpha  occ. eigenvalues --   -0.21657  -0.11915
 Alpha virt. eigenvalues --    0.16434   0.51810   0.65219   0.91476   0.91579
 Alpha virt. eigenvalues --    0.92752   0.94396   0.98172   0.99756   1.03600
 Alpha virt. eigenvalues --    1.05642   1.10719   1.11813   1.18364   1.20737

 Mulliken charges and spin densities:
               1          2
     1  O   -0.011040   0.369151
     2  O   -0.488960   0.130849
     3  O   -0.488960   0.130849
     4  O   -0.011040   0.369151
 Sum of Mulliken charges =  -1.00000   1.00000

 Dipole moment (field-independent basis, Debye):
    X=             -0.0000    Y=              0.0000    Z=              0.0000  Tot=              0.0000
 Quadrupole moment (field-independent basis, Debye-Ang):
   XX=            -22.5160   YY=            -23.0341   ZZ=            -44.3830
   XY=              0.0000   XZ=              0.0000   YZ=              0.0000

 \CCSD=-300.086162\CCSD(T)=-300.1828116\RMSD=5.463e-10\PG=D*H [C*(O1O1.
 Normal termination of Gaussian 16 at Sat Jan 14 19:25:54 2023.
