 Gaussian 16, Revision A.03,
 Gaussian 16:  ES64L-G16RevA.03 25-Dec-2016

 ---------------------------------------------------------------
 #p ROCCSD(T)/cc-pVTZ Guess=Read SCF=(VeryTight,CDIIS,VShift=10)
 ---------------------------------------------------------------

 --------
 O2_O2_71
 --------
 Symbolic Z-matrix:
 Charge = -1 Multiplicity = 2

                         Standard orientation:
 ---------------------------------------------------------------------
 Center     Atomic      Atomic             Coordinates (Angstroms)
 Number     Number       Type             X           Y           Z
 ---------------------------------------------------------------------
      1          8           0        0.000000    0.000000    1.295205
      2          8           0        0.000000    0.000000    2.647585
      3          8           0        0.000000    0.000000   -2.647585
      4          8           0        0.000000    0.000000   -1.295205
 ---------------------------------------------------------------------

 SCF Done:  E(ROHF) =  -298.984535250     A.U. after   12 cycles
 E2 =    -0.1474788760D+01 EUMP2 =    -0.30045932400992D+03
 CCSD(T)
 CCSD(T)= -0.30022935866D+03

 Unable to determine electronic state:  an orbital has unidentified symmetry.
 Alpha  occ. eigenvalues --  -20.50058 -20.50056 -20.45079 -20.45078  -1.29058
 Alpha  occ. eigenvalues --   -1.28749  -0.91330  -0.89784  -0.48030  -0.47539
 Alpha  occ. eigenvalues --   -0.44834  -0.41569  -0.39750  -0.38249  -0.26532
 Alpha  occ. eigenvalues --   -0.25894  -0.07773
 Alpha virt. eigenvalues --    0.08064   0.49912   0.56662   0.90337   0.92085
 Alpha virt. eigenvalues --    0.92618   0.93873   0.95165   0.95293   0.97014
 Alpha virt. eigenvalues --    0.99653   1.01654   1.10545   1.12707   1.13083

 Mulliken charges and spin densities:
               1          2
     1  O   -0.156429   0.318894
     2  O   -0.343571   0.181106
     3  O   -0.343571   0.181106
     4  O   -0.156429   0.318894
 Sum of Mulliken charges =  -1.00000   1.00000

 Dipole moment (field-independent basis, Debye):
    X=             -0.0000    Y=              0.0000    Z=              0.0000  Tot=              0.0000
 Quadrupole moment (field-independent basis, Debye-Ang):
   XX=            -22.5452   YY=            -23.1266   ZZ=            -48.6189
   XY=              0.0000   XZ=              0.0000   YZ=              0.0000

 \CCSD=-300.1033776\CCSD(T)=-300.2293587\RMSD=3.262e-10\PG=D*H [C*(O1O1
 Normal termination of Gaussian 16 at Sat Jan 14 21:10:01 2023.
