 Gaussian 16, Revision A.03,
 Gaussian 16:  ES64L-G16RevA.03 25-Dec-2016

 ---------------------------------------------------------------
 #p ROCCSD(T)/cc-pVTZ Guess=Read SCF=(VeryTight,CDIIS,VShift=10)
 ---------------------------------------------------------------

 ---------
 O2_O2_161
 ---------
 Symbolic Z-matrix:
 Charge = -1 Multiplicity = 2

                         Standard orientation:
 ---------------------------------------------------------------------
 Center     Atomic      Atomic             Coordinates (Angstroms)
 Number     Number       Type             X           Y           Z
 ---------------------------------------------------------------------
      1          8           0        0.000000    0.000000    1.932342
      2          8           0        0.000000    0.000000    3.284722
      3          8           0        0.000000    0.000000   -3.284722
      4          8           0        0.000000    0.000000   -1.932342
 ---------------------------------------------------------------------

 SCF Done:  E(ROHF) =  -299.132058999     A.U. after    8 cycles
 E2 =    -0.1045296382D+01 EUMP2 =    -0.30017735538107D+03
 CCSD(T)
 CCSD(T)= -0.30018345076D+03

 Unable to determine electronic state:  an orbital has unidentified symmetry.
 Alpha  occ. eigenvalues --  -20.47817 -20.47817 -20.46502 -20.46501  -1.29169
 Alpha  occ. eigenvalues --   -1.29153  -0.91181  -0.91061  -0.46493  -0.46471
 Alpha  occ. eigenvalues --   -0.43981  -0.43717  -0.41407  -0.40982  -0.25318
 Alpha  occ. eigenvalues --   -0.25264  -0.07722
 Alpha virt. eigenvalues --    0.02987   0.48978   0.52894   0.85412   0.92991
 Alpha virt. eigenvalues --    0.93410   0.93542   0.93865   0.94001   0.94996
 Alpha virt. eigenvalues --    1.02313   1.02535   1.03689   1.03876   1.05933

 Mulliken charges and spin densities:
               1          2
     1  O   -0.207393   0.266208
     2  O   -0.292607   0.233792
     3  O   -0.292607   0.233792
     4  O   -0.207393   0.266208
 Sum of Mulliken charges =  -1.00000   1.00000

 Dipole moment (field-independent basis, Debye):
    X=             -0.0000    Y=              0.0000    Z=              0.0000  Tot=              0.0000
 Quadrupole moment (field-independent basis, Debye-Ang):
   XX=            -21.4522   YY=            -23.7658   ZZ=            -61.0674
   XY=              0.0000   XZ=              0.0000   YZ=              0.0000

 5597\CCSD=-300.1287872\CCSD(T)=-300.1834508\RMSD=2.975e-09\PG=D*H [C*(
 Normal termination of Gaussian 16 at Sat Jan 14 23:21:27 2023.
