 Gaussian 16, Revision A.03,
 Gaussian 16:  ES64L-G16RevA.03 25-Dec-2016

 ---------------------------------------------------------------
 #p ROCCSD(T)/cc-pVTZ Guess=Read SCF=(VeryTight,CDIIS,VShift=10)
 ---------------------------------------------------------------

 ---------
 O2_O2_220
 ---------
 Symbolic Z-matrix:
 Charge = -1 Multiplicity = 2

                         Standard orientation:
 ---------------------------------------------------------------------
 Center     Atomic      Atomic             Coordinates (Angstroms)
 Number     Number       Type             X           Y           Z
 ---------------------------------------------------------------------
      1          8           0        0.000000    0.000000    2.350020
      2          8           0        0.000000    0.000000    3.702400
      3          8           0        0.000000    0.000000   -3.702400
      4          8           0        0.000000    0.000000   -2.350020
 ---------------------------------------------------------------------

 SCF Done:  E(ROHF) =  -299.131240107     A.U. after    8 cycles
 E2 =    -0.1046485558D+01 EUMP2 =    -0.30017772566542D+03
 CCSD(T)
 CCSD(T)= -0.30018246879D+03

 Unable to determine electronic state:  an orbital has unidentified symmetry.
 Alpha  occ. eigenvalues --  -20.48335 -20.48334 -20.47370 -20.47369  -1.29851
 Alpha  occ. eigenvalues --   -1.29846  -0.91855  -0.91812  -0.47167  -0.47165
 Alpha  occ. eigenvalues --   -0.44594  -0.44554  -0.42012  -0.41758  -0.25994
 Alpha  occ. eigenvalues --   -0.25988  -0.07609
 Alpha virt. eigenvalues --    0.01438   0.49931   0.50782   0.89367   0.91193
 Alpha virt. eigenvalues --    0.92956   0.93000   0.93093   0.93137   0.95859
 Alpha virt. eigenvalues --    0.97410   1.02207   1.02340   1.02414   1.02544

 Mulliken charges and spin densities:
               1          2
     1  O   -0.218116   0.262506
     2  O   -0.281884   0.237494
     3  O   -0.281884   0.237494
     4  O   -0.218116   0.262506
 Sum of Mulliken charges =  -1.00000   1.00000

 Dipole moment (field-independent basis, Debye):
    X=             -0.0000    Y=              0.0000    Z=             -0.0000  Tot=              0.0000
 Quadrupole moment (field-independent basis, Debye-Ang):
   XX=            -21.4440   YY=            -23.7626   ZZ=            -71.9666
   XY=              0.0000   XZ=              0.0000   YZ=              0.0000

 364666\CCSD=-300.1278337\CCSD(T)=-300.1824688\RMSD=1.572e-09\PG=D*H [C
 Normal termination of Gaussian 16 at Sun Jan 15 00:39:38 2023.
