 Gaussian 16, Revision A.03,
 Gaussian 16:  ES64L-G16RevA.03 25-Dec-2016

 ---------------------------------------------------------------
 #p ROCCSD(T)/cc-pVTZ Guess=Read SCF=(VeryTight,CDIIS,VShift=10)
 ---------------------------------------------------------------

 ---------
 O2_O2_208
 ---------
 Symbolic Z-matrix:
 Charge = -1 Multiplicity = 2

                         Standard orientation:
 ---------------------------------------------------------------------
 Center     Atomic      Atomic             Coordinates (Angstroms)
 Number     Number       Type             X           Y           Z
 ---------------------------------------------------------------------
      1          8           0        0.000000    0.000000    2.265068
      2          8           0        0.000000    0.000000    3.617448
      3          8           0        0.000000    0.000000   -3.617448
      4          8           0        0.000000    0.000000   -2.265068
 ---------------------------------------------------------------------

 SCF Done:  E(ROHF) =  -299.131329967     A.U. after    8 cycles
 E2 =    -0.1046267144D+01 EUMP2 =    -0.30017759711065D+03
 CCSD(T)
 CCSD(T)= -0.30018257090D+03

 Unable to determine electronic state:  an orbital has unidentified symmetry.
 Alpha  occ. eigenvalues --  -20.48236 -20.48236 -20.47213 -20.47213  -1.29725
 Alpha  occ. eigenvalues --   -1.29719  -0.91729  -0.91678  -0.47042  -0.47039
 Alpha  occ. eigenvalues --   -0.44473  -0.44412  -0.41899  -0.41619  -0.25867
 Alpha  occ. eigenvalues --   -0.25858  -0.07623
 Alpha virt. eigenvalues --    0.01711   0.49858   0.51104   0.88962   0.91624
 Alpha virt. eigenvalues --    0.93063   0.93138   0.93201   0.93276   0.95713
 Alpha virt. eigenvalues --    0.98170   1.02290   1.02498   1.02515   1.02717

 Mulliken charges and spin densities:
               1          2
     1  O   -0.216278   0.263186
     2  O   -0.283722   0.236814
     3  O   -0.283722   0.236814
     4  O   -0.216278   0.263186
 Sum of Mulliken charges =  -1.00000   1.00000

 Dipole moment (field-independent basis, Debye):
    X=             -0.0000    Y=              0.0000    Z=              0.0000  Tot=              0.0000
 Quadrupole moment (field-independent basis, Debye-Ang):
   XX=            -21.4449   YY=            -23.7631   ZZ=            -69.6076
   XY=              0.0000   XZ=              0.0000   YZ=              0.0000

 13\CCSD=-300.1279355\CCSD(T)=-300.1825709\RMSD=1.551e-09\PG=D*H [C*(O1
 Normal termination of Gaussian 16 at Sun Jan 15 00:23:59 2023.
