 Gaussian 16, Revision A.03,
 Gaussian 16:  ES64L-G16RevA.03 25-Dec-2016

 ---------------------------------------------------------------
 #p ROCCSD(T)/cc-pVTZ Guess=Read SCF=(VeryTight,CDIIS,VShift=10)
 ---------------------------------------------------------------

 ---------
 O2_O2_297
 ---------
 Symbolic Z-matrix:
 Charge = -1 Multiplicity = 2

                         Standard orientation:
 ---------------------------------------------------------------------
 Center     Atomic      Atomic             Coordinates (Angstroms)
 Number     Number       Type             X           Y           Z
 ---------------------------------------------------------------------
      1          8           0        0.000000    0.000000    2.895125
      2          8           0        0.000000    0.000000    4.247505
      3          8           0        0.000000    0.000000   -4.247505
      4          8           0        0.000000    0.000000   -2.895125
 ---------------------------------------------------------------------

 SCF Done:  E(ROHF) =  -299.130974919     A.U. after    8 cycles
 E2 =    -0.1047616679D+01 EUMP2 =    -0.30017859159753D+03
 CCSD(T)
 CCSD(T)= -0.30018218246D+03

 Unable to determine electronic state:  an orbital has unidentified symmetry.
 Alpha  occ. eigenvalues --  -20.48880 -20.48880 -20.48189 -20.48189  -1.30523
 Alpha  occ. eigenvalues --   -1.30521  -0.92533  -0.92512  -0.47839  -0.47839
 Alpha  occ. eigenvalues --   -0.45275  -0.45271  -0.42632  -0.42482  -0.26674
 Alpha  occ. eigenvalues --   -0.26674  -0.07561
 Alpha virt. eigenvalues --    0.00020   0.49623   0.49657   0.89607   0.89682
 Alpha virt. eigenvalues --    0.92318   0.92320   0.92456   0.92456   0.95720
 Alpha virt. eigenvalues --    0.95764   1.01589   1.01591   1.01796   1.01798

 Mulliken charges and spin densities:
               1          2
     1  O   -0.227068   0.259073
     2  O   -0.272932   0.240927
     3  O   -0.272932   0.240927
     4  O   -0.227068   0.259073
 Sum of Mulliken charges =  -1.00000   1.00000

 Dipole moment (field-independent basis, Debye):
    X=             -0.0000    Y=             -0.0000    Z=             -0.0000  Tot=              0.0000
 Quadrupole moment (field-independent basis, Debye-Ang):
   XX=            -21.4412   YY=            -23.7604   ZZ=            -88.8256
   XY=              0.0000   XZ=              0.0000   YZ=              0.0000

 0585\CCSD=-300.1275354\CCSD(T)=-300.1821825\RMSD=1.021e-09\PG=D*H [C*(
 Normal termination of Gaussian 16 at Sun Jan 15 02:24:02 2023.
