 Gaussian 16, Revision A.03,
 Gaussian 16:  ES64L-G16RevA.03 25-Dec-2016

 ---------------------------------------------------------------
 #p ROCCSD(T)/cc-pVTZ Guess=Read SCF=(VeryTight,CDIIS,VShift=10)
 ---------------------------------------------------------------

 ---------
 O2_O2_267
 ---------
 Symbolic Z-matrix:
 Charge = -1 Multiplicity = 2

                         Standard orientation:
 ---------------------------------------------------------------------
 Center     Atomic      Atomic             Coordinates (Angstroms)
 Number     Number       Type             X           Y           Z
 ---------------------------------------------------------------------
      1          8           0        0.000000    0.000000    2.682746
      2          8           0        0.000000    0.000000    4.035126
      3          8           0        0.000000    0.000000   -4.035126
      4          8           0        0.000000    0.000000   -2.682746
 ---------------------------------------------------------------------

 SCF Done:  E(ROHF) =  -299.131041772     A.U. after    8 cycles
 E2 =    -0.1047225391D+01 EUMP2 =    -0.30017826716296D+03
 CCSD(T)
 CCSD(T)= -0.30018225126D+03

 Unable to determine electronic state:  an orbital has unidentified symmetry.
 Alpha  occ. eigenvalues --  -20.48685 -20.48685 -20.47903 -20.47903  -1.30286
 Alpha  occ. eigenvalues --   -1.30283  -0.92294  -0.92267  -0.47602  -0.47602
 Alpha  occ. eigenvalues --   -0.45032  -0.45024  -0.42412  -0.42230  -0.26434
 Alpha  occ. eigenvalues --   -0.26433  -0.07574
 Alpha virt. eigenvalues --    0.00514   0.49826   0.49964   0.89752   0.90049
 Alpha virt. eigenvalues --    0.92549   0.92554   0.92686   0.92691   0.95913
 Alpha virt. eigenvalues --    0.96111   1.01824   1.01837   1.02030   1.02043

 Mulliken charges and spin densities:
               1          2
     1  O   -0.224080   0.260234
     2  O   -0.275920   0.239766
     3  O   -0.275920   0.239766
     4  O   -0.224080   0.260234
 Sum of Mulliken charges =  -1.00000   1.00000

 Dipole moment (field-independent basis, Debye):
    X=             -0.0000    Y=             -0.0000    Z=              0.0000  Tot=              0.0000
 Quadrupole moment (field-independent basis, Debye-Ang):
   XX=            -21.4419   YY=            -23.7611   ZZ=            -81.9033
   XY=              0.0000   XZ=              0.0000   YZ=              0.0000

 361701\CCSD=-300.1276102\CCSD(T)=-300.1822513\RMSD=1.249e-09\PG=D*H [C
 Normal termination of Gaussian 16 at Sun Jan 15 01:43:04 2023.
