 Gaussian 16, Revision A.03,
 Gaussian 16:  ES64L-G16RevA.03 25-Dec-2016

 ---------------------------------------------------------------
 #p ROCCSD(T)/cc-pVTZ Guess=Read SCF=(VeryTight,CDIIS,VShift=10)
 ---------------------------------------------------------------

 ---------
 O2_O2_230
 ---------
 Symbolic Z-matrix:
 Charge = -1 Multiplicity = 2

                         Standard orientation:
 ---------------------------------------------------------------------
 Center     Atomic      Atomic             Coordinates (Angstroms)
 Number     Number       Type             X           Y           Z
 ---------------------------------------------------------------------
      1          8           0        0.000000    0.000000    2.420813
      2          8           0        0.000000    0.000000    3.773193
      3          8           0        0.000000    0.000000   -3.773193
      4          8           0        0.000000    0.000000   -2.420813
 ---------------------------------------------------------------------

 SCF Done:  E(ROHF) =  -299.131181566     A.U. after    8 cycles
 E2 =    -0.1046657932D+01 EUMP2 =    -0.30017783949760D+03
 CCSD(T)
 CCSD(T)= -0.30018240329D+03

 Unable to determine electronic state:  an orbital has unidentified symmetry.
 Alpha  occ. eigenvalues --  -20.48414 -20.48414 -20.47493 -20.47493  -1.29951
 Alpha  occ. eigenvalues --   -1.29946  -0.91955  -0.91917  -0.47267  -0.47266
 Alpha  occ. eigenvalues --   -0.44693  -0.44664  -0.42103  -0.41867  -0.26095
 Alpha  occ. eigenvalues --   -0.26091  -0.07599
 Alpha virt. eigenvalues --    0.01223   0.49952   0.50555   0.89575   0.90871
 Alpha virt. eigenvalues --    0.92866   0.92894   0.93003   0.93031   0.95936
 Alpha virt. eigenvalues --    0.96970   1.02129   1.02213   1.02336   1.02418

 Mulliken charges and spin densities:
               1          2
     1  O   -0.219540   0.261971
     2  O   -0.280460   0.238029
     3  O   -0.280460   0.238029
     4  O   -0.219540   0.261971
 Sum of Mulliken charges =  -1.00000   1.00000

 Dipole moment (field-independent basis, Debye):
    X=             -0.0000    Y=             -0.0000    Z=             -0.0000  Tot=              0.0000
 Quadrupole moment (field-independent basis, Debye-Ang):
   XX=            -21.4434   YY=            -23.7622   ZZ=            -73.9878
   XY=              0.0000   XZ=              0.0000   YZ=              0.0000

 36383\CCSD=-300.1277676\CCSD(T)=-300.1824033\RMSD=1.543e-09\PG=D*H [C*
 Normal termination of Gaussian 16 at Sun Jan 15 00:52:52 2023.
