 Gaussian 16, Revision A.03,
 Gaussian 16:  ES64L-G16RevA.03 25-Dec-2016

 ---------------------------------------------------------------
 #p ROCCSD(T)/cc-pVTZ Guess=Read SCF=(VeryTight,CDIIS,VShift=10)
 ---------------------------------------------------------------

 ---------
 O2_O2_135
 ---------
 Symbolic Z-matrix:
 Charge = -1 Multiplicity = 2

                         Standard orientation:
 ---------------------------------------------------------------------
 Center     Atomic      Atomic             Coordinates (Angstroms)
 Number     Number       Type             X           Y           Z
 ---------------------------------------------------------------------
      1          8           0        0.000000    0.000000    1.748280
      2          8           0        0.000000    0.000000    3.100660
      3          8           0        0.000000    0.000000   -3.100660
      4          8           0        0.000000    0.000000   -1.748280
 ---------------------------------------------------------------------

 SCF Done:  E(ROHF) =  -299.132918063     A.U. after    8 cycles
 E2 =    -0.1044670714D+01 EUMP2 =    -0.30017758877717D+03
 CCSD(T)
 CCSD(T)= -0.30018453632D+03

 Unable to determine electronic state:  an orbital has unidentified symmetry.
 Alpha  occ. eigenvalues --  -20.47568 -20.47568 -20.46024 -20.46023  -1.28814
 Alpha  occ. eigenvalues --   -1.28779  -0.90853  -0.90624  -0.46147  -0.46093
 Alpha  occ. eigenvalues --   -0.43737  -0.43180  -0.41103  -0.40542  -0.24982
 Alpha  occ. eigenvalues --   -0.24854  -0.07834
 Alpha virt. eigenvalues --    0.03895   0.48526   0.54125   0.83763   0.93184
 Alpha virt. eigenvalues --    0.93423   0.93543   0.94459   0.94590   0.94846
 Alpha virt. eigenvalues --    1.01926   1.02168   1.05021   1.05186   1.12920

 Mulliken charges and spin densities:
               1          2
     1  O   -0.200865   0.268013
     2  O   -0.299135   0.231987
     3  O   -0.299135   0.231987
     4  O   -0.200865   0.268013
 Sum of Mulliken charges =  -1.00000   1.00000

 Dipole moment (field-independent basis, Debye):
    X=             -0.0000    Y=              0.0000    Z=             -0.0000  Tot=              0.0000
 Quadrupole moment (field-independent basis, Debye-Ang):
   XX=            -21.4609   YY=            -23.7678   ZZ=            -56.8319
   XY=              0.0000   XZ=              0.0000   YZ=              0.0000

 6882\CCSD=-300.129821\CCSD(T)=-300.1845363\RMSD=6.703e-09\PG=D*H [C*(O
 Normal termination of Gaussian 16 at Sat Jan 14 22:45:44 2023.
