 Gaussian 16, Revision A.03,
 Gaussian 16:  ES64L-G16RevA.03 25-Dec-2016

 ---------------------------------------------------------------
 #p ROCCSD(T)/cc-pVTZ Guess=Read SCF=(VeryTight,CDIIS,VShift=10)
 ---------------------------------------------------------------

 ---------
 O2_O2_226
 ---------
 Symbolic Z-matrix:
 Charge = -1 Multiplicity = 2

                         Standard orientation:
 ---------------------------------------------------------------------
 Center     Atomic      Atomic             Coordinates (Angstroms)
 Number     Number       Type             X           Y           Z
 ---------------------------------------------------------------------
      1          8           0        0.000000    0.000000    2.392496
      2          8           0        0.000000    0.000000    3.744876
      3          8           0        0.000000    0.000000   -3.744876
      4          8           0        0.000000    0.000000   -2.392496
 ---------------------------------------------------------------------

 SCF Done:  E(ROHF) =  -299.131203482     A.U. after    8 cycles
 E2 =    -0.1046590021D+01 EUMP2 =    -0.30017779350348D+03
 CCSD(T)
 CCSD(T)= -0.30018242771D+03

 Unable to determine electronic state:  an orbital has unidentified symmetry.
 Alpha  occ. eigenvalues --  -20.48383 -20.48382 -20.47444 -20.47444  -1.29911
 Alpha  occ. eigenvalues --   -1.29907  -0.91916  -0.91875  -0.47228  -0.47226
 Alpha  occ. eigenvalues --   -0.44654  -0.44621  -0.42067  -0.41824  -0.26055
 Alpha  occ. eigenvalues --   -0.26050  -0.07603
 Alpha virt. eigenvalues --    0.01308   0.49948   0.50641   0.89504   0.90995
 Alpha virt. eigenvalues --    0.92902   0.92935   0.93039   0.93073   0.95910
 Alpha virt. eigenvalues --    0.97129   1.02161   1.02262   1.02368   1.02466

 Mulliken charges and spin densities:
               1          2
     1  O   -0.218981   0.262182
     2  O   -0.281019   0.237818
     3  O   -0.281019   0.237818
     4  O   -0.218981   0.262182
 Sum of Mulliken charges =  -1.00000   1.00000

 Dipole moment (field-independent basis, Debye):
    X=             -0.0000    Y=              0.0000    Z=              0.0000  Tot=              0.0000
 Quadrupole moment (field-independent basis, Debye-Ang):
   XX=            -21.4436   YY=            -23.7623   ZZ=            -73.1733
   XY=              0.0000   XZ=              0.0000   YZ=              0.0000

 64146\CCSD=-300.1277923\CCSD(T)=-300.1824277\RMSD=1.560e-09\PG=D*H [C*
 Normal termination of Gaussian 16 at Sun Jan 15 00:47:36 2023.
