 Gaussian 16, Revision A.03,
 Gaussian 16:  ES64L-G16RevA.03 25-Dec-2016

 ---------------------------------------------------------------
 #p ROCCSD(T)/cc-pVTZ Guess=Read SCF=(VeryTight,CDIIS,VShift=10)
 ---------------------------------------------------------------

 ---------
 O2_O2_237
 ---------
 Symbolic Z-matrix:
 Charge = -1 Multiplicity = 2

                         Standard orientation:
 ---------------------------------------------------------------------
 Center     Atomic      Atomic             Coordinates (Angstroms)
 Number     Number       Type             X           Y           Z
 ---------------------------------------------------------------------
      1          8           0        0.000000    0.000000    2.470368
      2          8           0        0.000000    0.000000    3.822748
      3          8           0        0.000000    0.000000   -3.822748
      4          8           0        0.000000    0.000000   -2.470368
 ---------------------------------------------------------------------

 SCF Done:  E(ROHF) =  -299.131147314     A.U. after    8 cycles
 E2 =    -0.1046773516D+01 EUMP2 =    -0.30017792083019D+03
 CCSD(T)
 CCSD(T)= -0.30018236534D+03

 Unable to determine electronic state:  an orbital has unidentified symmetry.
 Alpha  occ. eigenvalues --  -20.48468 -20.48468 -20.47576 -20.47576  -1.30018
 Alpha  occ. eigenvalues --   -1.30014  -0.92023  -0.91988  -0.47334  -0.47333
 Alpha  occ. eigenvalues --   -0.44760  -0.44738  -0.42165  -0.41941  -0.26163
 Alpha  occ. eigenvalues --   -0.26160  -0.07594
 Alpha virt. eigenvalues --    0.01079   0.49949   0.50416   0.89667   0.90671
 Alpha virt. eigenvalues --    0.92804   0.92824   0.92941   0.92961   0.95965
 Alpha virt. eigenvalues --    0.96736   1.02072   1.02133   1.02279   1.02338

 Mulliken charges and spin densities:
               1          2
     1  O   -0.220483   0.261614
     2  O   -0.279517   0.238386
     3  O   -0.279517   0.238386
     4  O   -0.220483   0.261614
 Sum of Mulliken charges =  -1.00000   1.00000

 Dipole moment (field-independent basis, Debye):
    X=             -0.0000    Y=              0.0000    Z=             -0.0000  Tot=              0.0000
 Quadrupole moment (field-independent basis, Debye-Ang):
   XX=            -21.4430   YY=            -23.7620   ZZ=            -75.4325
   XY=              0.0000   XZ=              0.0000   YZ=              0.0000

 363328\CCSD=-300.1277289\CCSD(T)=-300.1823653\RMSD=1.502e-09\PG=D*H [C
 Normal termination of Gaussian 16 at Sun Jan 15 01:02:22 2023.
