 Gaussian 16, Revision A.03,
 Gaussian 16:  ES64L-G16RevA.03 25-Dec-2016

 ---------------------------------------------------------------
 #p ROCCSD(T)/cc-pVTZ Guess=Read SCF=(VeryTight,CDIIS,VShift=10)
 ---------------------------------------------------------------

 ---------
 O2_O2_110
 ---------
 Symbolic Z-matrix:
 Charge = -1 Multiplicity = 2

                         Standard orientation:
 ---------------------------------------------------------------------
 Center     Atomic      Atomic             Coordinates (Angstroms)
 Number     Number       Type             X           Y           Z
 ---------------------------------------------------------------------
      1          8           0        0.000000    0.000000    1.571298
      2          8           0        0.000000    0.000000    2.923678
      3          8           0        0.000000    0.000000   -2.923678
      4          8           0        0.000000    0.000000   -1.571298
 ---------------------------------------------------------------------

 SCF Done:  E(ROHF) =  -298.962132523     A.U. after   11 cycles
 E2 =    -0.1609895740D+01 EUMP2 =    -0.30057202826343D+03
 CCSD(T)
 CCSD(T)= -0.30022671551D+03

 Unable to determine electronic state:  partially filled degenerate orbitals.
 Alpha  occ. eigenvalues --  -20.49694 -20.49693 -20.46400 -20.46400  -1.29425
 Alpha  occ. eigenvalues --   -1.29348  -0.91386  -0.90927  -0.48294  -0.48165
 Alpha  occ. eigenvalues --   -0.44398  -0.43291  -0.39989  -0.39186  -0.26968
 Alpha  occ. eigenvalues --   -0.26818  -0.07030
 Alpha virt. eigenvalues --    0.05911   0.48318   0.54614   0.84160   0.91724
 Alpha virt. eigenvalues --    0.92802   0.93690   0.94042   0.94746   0.95808
 Alpha virt. eigenvalues --    1.00152   1.02275   1.05774   1.07891   1.12920

 Mulliken charges and spin densities:
               1          2
     1  O   -0.183046   0.300620
     2  O   -0.316954   0.199380
     3  O   -0.316954   0.199380
     4  O   -0.183046   0.300620
 Sum of Mulliken charges =  -1.00000   1.00000

 Dipole moment (field-independent basis, Debye):
    X=             -0.0000    Y=             -0.0000    Z=              0.0000  Tot=              0.0000
 Quadrupole moment (field-independent basis, Debye-Ang):
   XX=            -22.4803   YY=            -23.0925   ZZ=            -53.6380
   XY=              0.0000   XZ=              0.0000   YZ=              0.0000

 684217\CCSD=-300.0919452\CCSD(T)=-300.2267155\RMSD=6.425e-09\PG=D*H [C
 Normal termination of Gaussian 16 at Sat Jan 14 22:10:15 2023.
