 Gaussian 16, Revision A.03,
 Gaussian 16:  ES64L-G16RevA.03 25-Dec-2016

 ----------------------------------------------------
 #p ROCCSD(T)/cc-pVTZ SCF=(VeryTight,CDIIS,VShift=10)
 ----------------------------------------------------

 -------
 O2_O2_0
 -------
 Symbolic Z-matrix:
 Charge = -1 Multiplicity = 2

                         Standard orientation:
 ---------------------------------------------------------------------
 Center     Atomic      Atomic             Coordinates (Angstroms)
 Number     Number       Type             X           Y           Z
 ---------------------------------------------------------------------
      1          8           0        0.000000    0.000000    0.792575
      2          8           0        0.000000    0.000000    2.144956
      3          8           0        0.000000    0.000000   -2.144956
      4          8           0        0.000000    0.000000   -0.792575
 ---------------------------------------------------------------------

 SCF Done:  E(ROHF) =  -298.998067340     A.U. after   15 cycles
 E2 =    -0.1238046386D+01 EUMP2 =    -0.30023611372635D+03
 CCSD(T)
 CCSD(T)= -0.30017918301D+03

 Unable to determine electronic state:  an orbital has unidentified symmetry.
 Alpha  occ. eigenvalues --  -20.52057 -20.52049 -20.39085 -20.39084  -1.32244
 Alpha  occ. eigenvalues --   -1.26057  -0.98590  -0.82538  -0.51659  -0.50753
 Alpha  occ. eigenvalues --   -0.44818  -0.42648  -0.34285  -0.27735  -0.25828
 Alpha  occ. eigenvalues --   -0.21543  -0.12009
 Alpha virt. eigenvalues --    0.16630   0.51773   0.65505   0.91482   0.91592
 Alpha virt. eigenvalues --    0.92673   0.94400   0.98234   0.99818   1.03729
 Alpha virt. eigenvalues --    1.05768   1.10607   1.11772   1.18424   1.20804

 Mulliken charges and spin densities:
               1          2
     1  O   -0.006797   0.369778
     2  O   -0.493203   0.130222
     3  O   -0.493203   0.130222
     4  O   -0.006797   0.369778
 Sum of Mulliken charges =  -1.00000   1.00000

 Dipole moment (field-independent basis, Debye):
    X=             -0.0000    Y=              0.0000    Z=             -0.0000  Tot=              0.0000
 Quadrupole moment (field-independent basis, Debye-Ang):
   XX=            -22.5076   YY=            -23.0256   ZZ=            -44.4175
   XY=              0.0000   XZ=              0.0000   YZ=              0.0000

 300.0829608\CCSD(T)=-300.179183\RMSD=5.569e-09\PG=D*H [C*(O1O1.O1O1)]\
 Normal termination of Gaussian 16 at Sat Jan 14 19:24:28 2023.
