 Gaussian 16, Revision A.03,
 Gaussian 16:  ES64L-G16RevA.03 25-Dec-2016

 ---------------------------------------------------------------
 #p ROCCSD(T)/cc-pVTZ Guess=Read SCF=(VeryTight,CDIIS,VShift=10)
 ---------------------------------------------------------------

 ---------
 O2_O2_291
 ---------
 Symbolic Z-matrix:
 Charge = -1 Multiplicity = 2

                         Standard orientation:
 ---------------------------------------------------------------------
 Center     Atomic      Atomic             Coordinates (Angstroms)
 Number     Number       Type             X           Y           Z
 ---------------------------------------------------------------------
      1          8           0        0.000000    0.000000    2.852649
      2          8           0        0.000000    0.000000    4.205029
      3          8           0        0.000000    0.000000   -4.205029
      4          8           0        0.000000    0.000000   -2.852649
 ---------------------------------------------------------------------

 SCF Done:  E(ROHF) =  -299.130986294     A.U. after    8 cycles
 E2 =    -0.1047542670D+01 EUMP2 =    -0.30017852896381D+03
 CCSD(T)
 CCSD(T)= -0.30018219387D+03

 Unable to determine electronic state:  an orbital has unidentified symmetry.
 Alpha  occ. eigenvalues --  -20.48843 -20.48843 -20.48135 -20.48135  -1.30478
 Alpha  occ. eigenvalues --   -1.30475  -0.92488  -0.92465  -0.47794  -0.47794
 Alpha  occ. eigenvalues --   -0.45228  -0.45224  -0.42590  -0.42434  -0.26628
 Alpha  occ. eigenvalues --   -0.26628  -0.07563
 Alpha virt. eigenvalues --    0.00114   0.49666   0.49712   0.89644   0.89743
 Alpha virt. eigenvalues --    0.92362   0.92364   0.92500   0.92501   0.95763
 Alpha virt. eigenvalues --    0.95823   1.01634   1.01638   1.01841   1.01844

 Mulliken charges and spin densities:
               1          2
     1  O   -0.226513   0.259290
     2  O   -0.273487   0.240710
     3  O   -0.273487   0.240710
     4  O   -0.226513   0.259290
 Sum of Mulliken charges =  -1.00000   1.00000

 Dipole moment (field-independent basis, Debye):
    X=             -0.0000    Y=              0.0000    Z=             -0.0000  Tot=              0.0000
 Quadrupole moment (field-independent basis, Debye-Ang):
   XX=            -21.4413   YY=            -23.7605   ZZ=            -87.4051
   XY=              0.0000   XZ=              0.0000   YZ=              0.0000

 0781\CCSD=-300.1275481\CCSD(T)=-300.1821939\RMSD=1.063e-09\PG=D*H [C*(
 Normal termination of Gaussian 16 at Sun Jan 15 02:16:09 2023.
