 Gaussian 16, Revision A.03,
 Gaussian 16:  ES64L-G16RevA.03 25-Dec-2016

 ---------------------------------------------------------------
 #p ROCCSD(T)/cc-pVTZ Guess=Read SCF=(VeryTight,CDIIS,VShift=10)
 ---------------------------------------------------------------

 ---------
 O2_O2_260
 ---------
 Symbolic Z-matrix:
 Charge = -1 Multiplicity = 2

                         Standard orientation:
 ---------------------------------------------------------------------
 Center     Atomic      Atomic             Coordinates (Angstroms)
 Number     Number       Type             X           Y           Z
 ---------------------------------------------------------------------
      1          8           0        0.000000    0.000000    2.633191
      2          8           0        0.000000    0.000000    3.985571
      3          8           0        0.000000    0.000000   -3.985571
      4          8           0        0.000000    0.000000   -2.633191
 ---------------------------------------------------------------------

 SCF Done:  E(ROHF) =  -299.131061871     A.U. after    8 cycles
 E2 =    -0.1047125856D+01 EUMP2 =    -0.30017818772732D+03
 CCSD(T)
 CCSD(T)= -0.30018227259D+03

 Unable to determine electronic state:  an orbital has unidentified symmetry.
 Alpha  occ. eigenvalues --  -20.48637 -20.48636 -20.47831 -20.47831  -1.30226
 Alpha  occ. eigenvalues --   -1.30223  -0.92234  -0.92205  -0.47543  -0.47542
 Alpha  occ. eigenvalues --   -0.44971  -0.44961  -0.42356  -0.42166  -0.26374
 Alpha  occ. eigenvalues --   -0.26373  -0.07578
 Alpha virt. eigenvalues --    0.00639   0.49865   0.50053   0.89764   0.90165
 Alpha virt. eigenvalues --    0.92606   0.92613   0.92744   0.92750   0.95944
 Alpha virt. eigenvalues --    0.96220   1.01881   1.01900   1.02087   1.02106

 Mulliken charges and spin densities:
               1          2
     1  O   -0.223300   0.260535
     2  O   -0.276700   0.239465
     3  O   -0.276700   0.239465
     4  O   -0.223300   0.260535
 Sum of Mulliken charges =  -1.00000   1.00000

 Dipole moment (field-independent basis, Debye):
    X=             -0.0000    Y=              0.0000    Z=              0.0000  Tot=              0.0000
 Quadrupole moment (field-independent basis, Debye-Ang):
   XX=            -21.4421   YY=            -23.7613   ZZ=            -80.3530
   XY=              0.0000   XZ=              0.0000   YZ=              0.0000

 362022\CCSD=-300.1276328\CCSD(T)=-300.1822726\RMSD=1.310e-09\PG=D*H [C
 Normal termination of Gaussian 16 at Sun Jan 15 01:33:46 2023.
