 Gaussian 16, Revision A.03,
 Gaussian 16:  ES64L-G16RevA.03 25-Dec-2016

 ---------------------------------------------------------------
 #p ROCCSD(T)/cc-pVTZ Guess=Read SCF=(VeryTight,CDIIS,VShift=10)
 ---------------------------------------------------------------

 ---------
 O2_O2_197
 ---------
 Symbolic Z-matrix:
 Charge = -1 Multiplicity = 2

                         Standard orientation:
 ---------------------------------------------------------------------
 Center     Atomic      Atomic             Coordinates (Angstroms)
 Number     Number       Type             X           Y           Z
 ---------------------------------------------------------------------
      1          8           0        0.000000    0.000000    2.187196
      2          8           0        0.000000    0.000000    3.539576
      3          8           0        0.000000    0.000000   -3.539576
      4          8           0        0.000000    0.000000   -2.187196
 ---------------------------------------------------------------------

 SCF Done:  E(ROHF) =  -299.131437542     A.U. after    8 cycles
 E2 =    -0.1046055879D+01 EUMP2 =    -0.30017749342101D+03
 CCSD(T)
 CCSD(T)= -0.30018269548D+03

 Unable to determine electronic state:  an orbital has unidentified symmetry.
 Alpha  occ. eigenvalues --  -20.48142 -20.48142 -20.47061 -20.47061  -1.29604
 Alpha  occ. eigenvalues --   -1.29597  -0.91608  -0.91548  -0.46922  -0.46916
 Alpha  occ. eigenvalues --   -0.44359  -0.44271  -0.41790  -0.41484  -0.25746
 Alpha  occ. eigenvalues --   -0.25732  -0.07639
 Alpha virt. eigenvalues --    0.01978   0.49734   0.51450   0.88404   0.92027
 Alpha virt. eigenvalues --    0.93160   0.93278   0.93297   0.93415   0.95539
 Alpha virt. eigenvalues --    0.99189   1.02349   1.02558   1.02706   1.02906

 Mulliken charges and spin densities:
               1          2
     1  O   -0.214459   0.263845
     2  O   -0.285541   0.236155
     3  O   -0.285541   0.236155
     4  O   -0.214459   0.263845
 Sum of Mulliken charges =  -1.00000   1.00000

 Dipole moment (field-independent basis, Debye):
    X=             -0.0000    Y=              0.0000    Z=              0.0000  Tot=              0.0000
 Quadrupole moment (field-independent basis, Debye-Ang):
   XX=            -21.4460   YY=            -23.7636   ZZ=            -67.5088
   XY=              0.0000   XZ=              0.0000   YZ=              0.0000

 367371\CCSD=-300.1280583\CCSD(T)=-300.1826955\RMSD=1.515e-09\PG=D*H [C
 Normal termination of Gaussian 16 at Sun Jan 15 00:09:22 2023.
