 Gaussian 16, Revision A.03,
 Gaussian 16:  ES64L-G16RevA.03 25-Dec-2016

 ---------------------------------------------------------------
 #p ROCCSD(T)/cc-pVTZ Guess=Read SCF=(VeryTight,CDIIS,VShift=10)
 ---------------------------------------------------------------

 --------
 O2_O2_24
 --------
 Symbolic Z-matrix:
 Charge = -1 Multiplicity = 2

                         Standard orientation:
 ---------------------------------------------------------------------
 Center     Atomic      Atomic             Coordinates (Angstroms)
 Number     Number       Type             X           Y           Z
 ---------------------------------------------------------------------
      1          8           0        0.000000    0.000000    0.962478
      2          8           0        0.000000    0.000000    2.314859
      3          8           0        0.000000    0.000000   -2.314859
      4          8           0        0.000000    0.000000   -0.962478
 ---------------------------------------------------------------------

 SCF Done:  E(ROHF) =  -299.020285171     A.U. after    9 cycles
 E2 =    -0.1306286210D+01 EUMP2 =    -0.30032657138113D+03
 CCSD(T)
 CCSD(T)= -0.30022507721D+03

 Unable to determine electronic state:  an orbital has unidentified symmetry.
 Alpha  occ. eigenvalues --  -20.51106 -20.51103 -20.42096 -20.42096  -1.29488
 Alpha  occ. eigenvalues --   -1.27457  -0.93721  -0.86397  -0.48844  -0.47727
 Alpha  occ. eigenvalues --   -0.46203  -0.40358  -0.36216  -0.35813  -0.26135
 Alpha  occ. eigenvalues --   -0.23727  -0.09961
 Alpha virt. eigenvalues --    0.12635   0.51713   0.60734   0.90646   0.91546
 Alpha virt. eigenvalues --    0.93453   0.93767   0.96976   0.98607   1.01282
 Alpha virt. eigenvalues --    1.03262   1.12061   1.12609   1.16468   1.18728

 Mulliken charges and spin densities:
               1          2
     1  O   -0.083281   0.352069
     2  O   -0.416719   0.147931
     3  O   -0.416719   0.147931
     4  O   -0.083281   0.352069
 Sum of Mulliken charges =  -1.00000   1.00000

 Dipole moment (field-independent basis, Debye):
    X=             -0.0000    Y=              0.0000    Z=             -0.0000  Tot=              0.0000
 Quadrupole moment (field-independent basis, Debye-Ang):
   XX=            -22.6098   YY=            -23.1409   ZZ=            -44.6238
   XY=              0.0000   XZ=              0.0000   YZ=              0.0000

 4364\CCSD=-300.1173136\CCSD(T)=-300.2250772\RMSD=8.545e-09\PG=D*H [C*(
 Normal termination of Gaussian 16 at Sat Jan 14 19:59:07 2023.
