 Gaussian 16, Revision A.03,
 Gaussian 16:  ES64L-G16RevA.03 25-Dec-2016

 ---------------------------------------------------------------
 #p ROCCSD(T)/cc-pVTZ Guess=Read SCF=(VeryTight,CDIIS,VShift=10)
 ---------------------------------------------------------------

 ---------
 O2_O2_140
 ---------
 Symbolic Z-matrix:
 Charge = -1 Multiplicity = 2

                         Standard orientation:
 ---------------------------------------------------------------------
 Center     Atomic      Atomic             Coordinates (Angstroms)
 Number     Number       Type             X           Y           Z
 ---------------------------------------------------------------------
      1          8           0        0.000000    0.000000    1.783676
      2          8           0        0.000000    0.000000    3.136056
      3          8           0        0.000000    0.000000   -3.136056
      4          8           0        0.000000    0.000000   -1.783676
 ---------------------------------------------------------------------

 SCF Done:  E(ROHF) =  -299.132716282     A.U. after    8 cycles
 E2 =    -0.1044798679D+01 EUMP2 =    -0.30017751496092D+03
 CCSD(T)
 CCSD(T)= -0.30018428053D+03

 Unable to determine electronic state:  an orbital has unidentified symmetry.
 Alpha  occ. eigenvalues --  -20.47617 -20.47616 -20.46121 -20.46121  -1.28885
 Alpha  occ. eigenvalues --   -1.28855  -0.90916  -0.90716  -0.46216  -0.46170
 Alpha  occ. eigenvalues --   -0.43780  -0.43295  -0.41163  -0.40633  -0.25048
 Alpha  occ. eigenvalues --   -0.24939  -0.07807
 Alpha virt. eigenvalues --    0.03706   0.48568   0.53882   0.83917   0.93179
 Alpha virt. eigenvalues --    0.93439   0.93562   0.94332   0.94465   0.94858
 Alpha virt. eigenvalues --    1.02028   1.02265   1.04706   1.04877   1.12401

 Mulliken charges and spin densities:
               1          2
     1  O   -0.202240   0.267667
     2  O   -0.297760   0.232333
     3  O   -0.297760   0.232333
     4  O   -0.202240   0.267667
 Sum of Mulliken charges =  -1.00000   1.00000

 Dipole moment (field-independent basis, Debye):
    X=             -0.0000    Y=              0.0000    Z=             -0.0000  Tot=              0.0000
 Quadrupole moment (field-independent basis, Debye-Ang):
   XX=            -21.4588   YY=            -23.7674   ZZ=            -57.6186
   XY=              0.0000   XZ=              0.0000   YZ=              0.0000

 4242\CCSD=-300.1295775\CCSD(T)=-300.1842805\RMSD=5.854e-09\PG=D*H [C*(
 Normal termination of Gaussian 16 at Sat Jan 14 22:52:26 2023.
