 Gaussian 16, Revision A.03,
 Gaussian 16:  ES64L-G16RevA.03 25-Dec-2016

 ---------------------------------------------------------------
 #p ROCCSD(T)/cc-pVTZ Guess=Read SCF=(VeryTight,CDIIS,VShift=10)
 ---------------------------------------------------------------

 --------
 O2_O2_56
 --------
 Symbolic Z-matrix:
 Charge = -1 Multiplicity = 2

                         Standard orientation:
 ---------------------------------------------------------------------
 Center     Atomic      Atomic             Coordinates (Angstroms)
 Number     Number       Type             X           Y           Z
 ---------------------------------------------------------------------
      1          8           0        0.000000    0.000000    1.189016
      2          8           0        0.000000    0.000000    2.541396
      3          8           0        0.000000    0.000000   -2.541396
      4          8           0        0.000000    0.000000   -1.189016
 ---------------------------------------------------------------------

 SCF Done:  E(ROHF) =  -298.996479779     A.U. after   12 cycles
 E2 =    -0.1420617823D+01 EUMP2 =    -0.30041709760205D+03
 CCSD(T)
 CCSD(T)= -0.30023071827D+03

 Unable to determine electronic state:  an orbital has unidentified symmetry.
 Alpha  occ. eigenvalues --  -20.50328 -20.50326 -20.44370 -20.44370  -1.29001
 Alpha  occ. eigenvalues --   -1.28451  -0.91593  -0.89072  -0.48053  -0.47225
 Alpha  occ. eigenvalues --   -0.45364  -0.40432  -0.39760  -0.37758  -0.26391
 Alpha  occ. eigenvalues --   -0.25390  -0.08260
 Alpha virt. eigenvalues --    0.09197   0.50567   0.57644   0.89981   0.91868
 Alpha virt. eigenvalues --    0.92431   0.94484   0.95786   0.97484   0.99836
 Alpha virt. eigenvalues --    1.01190   1.01798   1.12613   1.13043   1.14057

 Mulliken charges and spin densities:
               1          2
     1  O   -0.139865   0.328259
     2  O   -0.360135   0.171741
     3  O   -0.360135   0.171741
     4  O   -0.139865   0.328259
 Sum of Mulliken charges =  -1.00000   1.00000

 Dipole moment (field-independent basis, Debye):
    X=             -0.0000    Y=              0.0000    Z=              0.0000  Tot=              0.0000
 Quadrupole moment (field-independent basis, Debye-Ang):
   XX=            -22.5764   YY=            -23.1420   ZZ=            -47.0160
   XY=              0.0000   XZ=              0.0000   YZ=              0.0000

 732\CCSD=-300.1095065\CCSD(T)=-300.2307183\RMSD=6.454e-10\PG=D*H [C*(O
 Normal termination of Gaussian 16 at Sat Jan 14 20:47:28 2023.
