 Gaussian 16, Revision A.03,
 Gaussian 16:  ES64L-G16RevA.03 25-Dec-2016

 ---------------------------------------------------------------
 #p ROCCSD(T)/cc-pVTZ Guess=Read SCF=(VeryTight,CDIIS,VShift=10)
 ---------------------------------------------------------------

 ---------
 O2_O2_168
 ---------
 Symbolic Z-matrix:
 Charge = -1 Multiplicity = 2

                         Standard orientation:
 ---------------------------------------------------------------------
 Center     Atomic      Atomic             Coordinates (Angstroms)
 Number     Number       Type             X           Y           Z
 ---------------------------------------------------------------------
      1          8           0        0.000000    0.000000    1.981897
      2          8           0        0.000000    0.000000    3.334277
      3          8           0        0.000000    0.000000   -3.334277
      4          8           0        0.000000    0.000000   -1.981897
 ---------------------------------------------------------------------

 SCF Done:  E(ROHF) =  -299.131896352     A.U. after    8 cycles
 E2 =    -0.1045451982D+01 EUMP2 =    -0.30017734833397D+03
 CCSD(T)
 CCSD(T)= -0.30018324869D+03

 Unable to determine electronic state:  an orbital has unidentified symmetry.
 Alpha  occ. eigenvalues --  -20.47882 -20.47882 -20.46619 -20.46619  -1.29259
 Alpha  occ. eigenvalues --   -1.29245  -0.91268  -0.91164  -0.46581  -0.46564
 Alpha  occ. eigenvalues --   -0.44053  -0.43838  -0.41485  -0.41088  -0.25405
 Alpha  occ. eigenvalues --   -0.25362  -0.07701
 Alpha virt. eigenvalues --    0.02772   0.49150   0.52582   0.86063   0.92866
 Alpha virt. eigenvalues --    0.93375   0.93509   0.93732   0.93868   0.95076
 Alpha virt. eigenvalues --    1.02359   1.02577   1.03438   1.03629   1.04132

 Mulliken charges and spin densities:
               1          2
     1  O   -0.208922   0.265729
     2  O   -0.291078   0.234271
     3  O   -0.291078   0.234271
     4  O   -0.208922   0.265729
 Sum of Mulliken charges =  -1.00000   1.00000

 Dipole moment (field-independent basis, Debye):
    X=             -0.0000    Y=              0.0000    Z=             -0.0000  Tot=              0.0000
 Quadrupole moment (field-independent basis, Debye-Ang):
   XX=            -21.4505   YY=            -23.7653   ZZ=            -62.2681
   XY=              0.0000   XZ=              0.0000   YZ=              0.0000

 373452\CCSD=-300.1285938\CCSD(T)=-300.1832487\RMSD=2.371e-09\PG=D*H [C
 Normal termination of Gaussian 16 at Sat Jan 14 23:30:50 2023.
