 Gaussian 16, Revision A.03,
 Gaussian 16:  ES64L-G16RevA.03 25-Dec-2016

 ---------------------------------------------------------------
 #p ROCCSD(T)/cc-pVTZ Guess=Read SCF=(VeryTight,CDIIS,VShift=10)
 ---------------------------------------------------------------

 ---------
 O2_O2_261
 ---------
 Symbolic Z-matrix:
 Charge = -1 Multiplicity = 2

                         Standard orientation:
 ---------------------------------------------------------------------
 Center     Atomic      Atomic             Coordinates (Angstroms)
 Number     Number       Type             X           Y           Z
 ---------------------------------------------------------------------
      1          8           0        0.000000    0.000000    2.640271
      2          8           0        0.000000    0.000000    3.992651
      3          8           0        0.000000    0.000000   -3.992651
      4          8           0        0.000000    0.000000   -2.640271
 ---------------------------------------------------------------------

 SCF Done:  E(ROHF) =  -299.131058864     A.U. after    8 cycles
 E2 =    -0.1047140284D+01 EUMP2 =    -0.30017819914807D+03
 CCSD(T)
 CCSD(T)= -0.30018226938D+03

 Unable to determine electronic state:  an orbital has unidentified symmetry.
 Alpha  occ. eigenvalues --  -20.48644 -20.48643 -20.47841 -20.47841  -1.30235
 Alpha  occ. eigenvalues --   -1.30232  -0.92242  -0.92214  -0.47551  -0.47551
 Alpha  occ. eigenvalues --   -0.44980  -0.44970  -0.42364  -0.42175  -0.26382
 Alpha  occ. eigenvalues --   -0.26381  -0.07578
 Alpha virt. eigenvalues --    0.00621   0.49860   0.50040   0.89763   0.90147
 Alpha virt. eigenvalues --    0.92598   0.92605   0.92736   0.92742   0.95940
 Alpha virt. eigenvalues --    0.96203   1.01873   1.01891   1.02079   1.02097

 Mulliken charges and spin densities:
               1          2
     1  O   -0.223414   0.260492
     2  O   -0.276586   0.239508
     3  O   -0.276586   0.239508
     4  O   -0.223414   0.260492
 Sum of Mulliken charges =  -1.00000   1.00000

 Dipole moment (field-independent basis, Debye):
    X=             -0.0000    Y=              0.0000    Z=             -0.0000  Tot=              0.0000
 Quadrupole moment (field-independent basis, Debye-Ang):
   XX=            -21.4421   YY=            -23.7612   ZZ=            -80.5730
   XY=              0.0000   XZ=              0.0000   YZ=              0.0000

 361974\CCSD=-300.1276294\CCSD(T)=-300.1822694\RMSD=1.301e-09\PG=D*H [C
 Normal termination of Gaussian 16 at Sun Jan 15 01:35:05 2023.
