 Gaussian 16, Revision A.03,
 Gaussian 16:  ES64L-G16RevA.03 25-Dec-2016

 ---------------------------------------------------------------
 #p ROCCSD(T)/cc-pVTZ Guess=Read SCF=(VeryTight,CDIIS,VShift=10)
 ---------------------------------------------------------------

 --------
 O2_O2_39
 --------
 Symbolic Z-matrix:
 Charge = -1 Multiplicity = 2

                         Standard orientation:
 ---------------------------------------------------------------------
 Center     Atomic      Atomic             Coordinates (Angstroms)
 Number     Number       Type             X           Y           Z
 ---------------------------------------------------------------------
      1          8           0        0.000000    0.000000    1.068668
      2          8           0        0.000000    0.000000    2.421048
      3          8           0        0.000000    0.000000   -2.421048
      4          8           0        0.000000    0.000000   -1.068668
 ---------------------------------------------------------------------

 SCF Done:  E(ROHF) =  -299.010907178     A.U. after    9 cycles
 E2 =    -0.1358966501D+01 EUMP2 =    -0.30036987367901D+03
 CCSD(T)
 CCSD(T)= -0.30023062303D+03

 Unable to determine electronic state:  an orbital has unidentified symmetry.
 Alpha  occ. eigenvalues --  -20.50712 -20.50710 -20.43331 -20.43331  -1.29092
 Alpha  occ. eigenvalues --   -1.28008  -0.92340  -0.87909  -0.48280  -0.46765
 Alpha  occ. eigenvalues --   -0.46376  -0.39928  -0.38496  -0.37047  -0.26252
 Alpha  occ. eigenvalues --   -0.24636  -0.09029
 Alpha virt. eigenvalues --    0.10809   0.51230   0.59039   0.90080   0.91688
 Alpha virt. eigenvalues --    0.92734   0.94148   0.96378   0.98043   1.00394
 Alpha virt. eigenvalues --    1.02342   1.09379   1.12888   1.14800   1.14889

 Mulliken charges and spin densities:
               1          2
     1  O   -0.113921   0.340406
     2  O   -0.386079   0.159594
     3  O   -0.386079   0.159594
     4  O   -0.113921   0.340406
 Sum of Mulliken charges =  -1.00000   1.00000

 Dipole moment (field-independent basis, Debye):
    X=             -0.0000    Y=              0.0000    Z=             -0.0000  Tot=              0.0000
 Quadrupole moment (field-independent basis, Debye-Ang):
   XX=            -22.6056   YY=            -23.1522   ZZ=            -45.5301
   XY=              0.0000   XZ=              0.0000   YZ=              0.0000

 36184\CCSD=-300.1160051\CCSD(T)=-300.230623\RMSD=8.921e-09\PG=D*H [C*(
 Normal termination of Gaussian 16 at Sat Jan 14 20:21:56 2023.
