 Gaussian 16, Revision A.03,
 Gaussian 16:  ES64L-G16RevA.03 25-Dec-2016

 ---------------------------------------------------------------
 #p ROCCSD(T)/cc-pVTZ Guess=Read SCF=(VeryTight,CDIIS,VShift=10)
 ---------------------------------------------------------------

 --------
 O2_O2_46
 --------
 Symbolic Z-matrix:
 Charge = -1 Multiplicity = 2

                         Standard orientation:
 ---------------------------------------------------------------------
 Center     Atomic      Atomic             Coordinates (Angstroms)
 Number     Number       Type             X           Y           Z
 ---------------------------------------------------------------------
      1          8           0        0.000000    0.000000    1.118223
      2          8           0        0.000000    0.000000    2.470603
      3          8           0        0.000000    0.000000   -2.470603
      4          8           0        0.000000    0.000000   -1.118223
 ---------------------------------------------------------------------

 SCF Done:  E(ROHF) =  -299.005049041     A.U. after   12 cycles
 E2 =    -0.1384277246D+01 EUMP2 =    -0.30038932628644D+03
 CCSD(T)
 CCSD(T)= -0.30023107763D+03

 Unable to determine electronic state:  an orbital has unidentified symmetry.
 Alpha  occ. eigenvalues --  -20.50546 -20.50544 -20.43796 -20.43796  -1.29026
 Alpha  occ. eigenvalues --   -1.28209  -0.91954  -0.88445  -0.48151  -0.46972
 Alpha  occ. eigenvalues --   -0.45898  -0.39831  -0.39402  -0.37364  -0.26307
 Alpha  occ. eigenvalues --   -0.24975  -0.08680
 Alpha virt. eigenvalues --    0.10095   0.50968   0.58416   0.89964   0.91758
 Alpha virt. eigenvalues --    0.92534   0.94309   0.96127   0.97806   1.00113
 Alpha virt. eigenvalues --    1.02062   1.06182   1.12968   1.13931   1.14341

 Mulliken charges and spin densities:
               1          2
     1  O   -0.125634   0.335225
     2  O   -0.374366   0.164775
     3  O   -0.374366   0.164775
     4  O   -0.125634   0.335225
 Sum of Mulliken charges =  -1.00000   1.00000

 Dipole moment (field-independent basis, Debye):
    X=             -0.0000    Y=              0.0000    Z=              0.0000  Tot=              0.0000
 Quadrupole moment (field-independent basis, Debye-Ang):
   XX=            -22.5954   YY=            -23.1498   ZZ=            -46.0917
   XY=              0.0000   XZ=              0.0000   YZ=              0.0000

 051\CCSD=-300.1135863\CCSD(T)=-300.2310776\RMSD=1.315e-09\PG=D*H [C*(O
 Normal termination of Gaussian 16 at Sat Jan 14 20:32:20 2023.
