 Gaussian 16, Revision A.03,
 Gaussian 16:  ES64L-G16RevA.03 25-Dec-2016

 ---------------------------------------------------------------
 #p ROCCSD(T)/cc-pVTZ Guess=Read SCF=(VeryTight,CDIIS,VShift=10)
 ---------------------------------------------------------------

 ---------
 O2_O2_115
 ---------
 Symbolic Z-matrix:
 Charge = -1 Multiplicity = 2

                         Standard orientation:
 ---------------------------------------------------------------------
 Center     Atomic      Atomic             Coordinates (Angstroms)
 Number     Number       Type             X           Y           Z
 ---------------------------------------------------------------------
      1          8           0        0.000000    0.000000    1.606694
      2          8           0        0.000000    0.000000    2.959074
      3          8           0        0.000000    0.000000   -2.959074
      4          8           0        0.000000    0.000000   -1.606694
 ---------------------------------------------------------------------

 SCF Done:  E(ROHF) =  -298.960072581     A.U. after   11 cycles
 E2 =    -0.1626492014D+01 EUMP2 =    -0.30058656459588D+03
 CCSD(T)
 CCSD(T)= -0.30022658444D+03

 Unable to determine electronic state:  partially filled degenerate orbitals.
 Alpha  occ. eigenvalues --  -20.49678 -20.49678 -20.46535 -20.46535  -1.29482
 Alpha  occ. eigenvalues --   -1.29416  -0.91429  -0.91033  -0.48344  -0.48235
 Alpha  occ. eigenvalues --   -0.44401  -0.43439  -0.40034  -0.39284  -0.27028
 Alpha  occ. eigenvalues --   -0.26911  -0.06972
 Alpha virt. eigenvalues --    0.05691   0.48198   0.54377   0.83649   0.91847
 Alpha virt. eigenvalues --    0.92864   0.93789   0.93890   0.94730   0.95660
 Alpha virt. eigenvalues --    1.00272   1.02405   1.05302   1.07416   1.12877

 Mulliken charges and spin densities:
               1          2
     1  O   -0.185392   0.298825
     2  O   -0.314608   0.201175
     3  O   -0.314608   0.201175
     4  O   -0.185392   0.298825
 Sum of Mulliken charges =  -1.00000   1.00000

 Dipole moment (field-independent basis, Debye):
    X=             -0.0000    Y=             -0.0000    Z=              0.0000  Tot=              0.0000
 Quadrupole moment (field-independent basis, Debye-Ang):
   XX=            -22.4743   YY=            -23.0893   ZZ=            -54.3515
   XY=              0.0000   XZ=              0.0000   YZ=              0.0000

 94997\CCSD=-300.0909685\CCSD(T)=-300.2265844\RMSD=5.943e-09\PG=D*H [C*
 Normal termination of Gaussian 16 at Sat Jan 14 22:17:54 2023.
