 Gaussian 16, Revision A.03,
 Gaussian 16:  ES64L-G16RevA.03 25-Dec-2016

 ---------------------------------------------------------------
 #p ROCCSD(T)/cc-pVTZ Guess=Read SCF=(VeryTight,CDIIS,VShift=10)
 ---------------------------------------------------------------

 ---------
 O2_O2_203
 ---------
 Symbolic Z-matrix:
 Charge = -1 Multiplicity = 2

                         Standard orientation:
 ---------------------------------------------------------------------
 Center     Atomic      Atomic             Coordinates (Angstroms)
 Number     Number       Type             X           Y           Z
 ---------------------------------------------------------------------
      1          8           0        0.000000    0.000000    2.229671
      2          8           0        0.000000    0.000000    3.582052
      3          8           0        0.000000    0.000000   -3.582052
      4          8           0        0.000000    0.000000   -2.229671
 ---------------------------------------------------------------------

 SCF Done:  E(ROHF) =  -299.131375431     A.U. after    8 cycles
 E2 =    -0.1046172406D+01 EUMP2 =    -0.30017754783665D+03
 CCSD(T)
 CCSD(T)= -0.30018262329D+03

 Unable to determine electronic state:  an orbital has unidentified symmetry.
 Alpha  occ. eigenvalues --  -20.48194 -20.48193 -20.47145 -20.47145  -1.29671
 Alpha  occ. eigenvalues --   -1.29664  -0.91675  -0.91620  -0.46988  -0.46984
 Alpha  occ. eigenvalues --   -0.44421  -0.44349  -0.41850  -0.41559  -0.25813
 Alpha  occ. eigenvalues --   -0.25801  -0.07630
 Alpha virt. eigenvalues --    0.01830   0.49808   0.51255   0.88733   0.91808
 Alpha virt. eigenvalues --    0.93108   0.93200   0.93245   0.93337   0.95638
 Alpha virt. eigenvalues --    0.98588   1.02319   1.02527   1.02598   1.02799

 Mulliken charges and spin densities:
               1          2
     1  O   -0.215468   0.263481
     2  O   -0.284532   0.236519
     3  O   -0.284532   0.236519
     4  O   -0.215468   0.263481
 Sum of Mulliken charges =  -1.00000   1.00000

 Dipole moment (field-independent basis, Debye):
    X=             -0.0000    Y=             -0.0000    Z=             -0.0000  Tot=              0.0000
 Quadrupole moment (field-independent basis, Debye-Ang):
   XX=            -21.4454   YY=            -23.7633   ZZ=            -68.6460
   XY=              0.0000   XZ=              0.0000   YZ=              0.0000

 366532\CCSD=-300.1279873\CCSD(T)=-300.1826233\RMSD=1.530e-09\PG=D*H [C
 Normal termination of Gaussian 16 at Sun Jan 15 00:17:22 2023.
