 Gaussian 16, Revision A.03,
 Gaussian 16:  ES64L-G16RevA.03 25-Dec-2016

 ---------------------------------------------------------------
 #p ROCCSD(T)/cc-pVTZ Guess=Read SCF=(VeryTight,CDIIS,VShift=10)
 ---------------------------------------------------------------

 ---------
 O2_O2_279
 ---------
 Symbolic Z-matrix:
 Charge = -1 Multiplicity = 2

                         Standard orientation:
 ---------------------------------------------------------------------
 Center     Atomic      Atomic             Coordinates (Angstroms)
 Number     Number       Type             X           Y           Z
 ---------------------------------------------------------------------
      1          8           0        0.000000    0.000000    2.767698
      2          8           0        0.000000    0.000000    4.120078
      3          8           0        0.000000    0.000000   -4.120078
      4          8           0        0.000000    0.000000   -2.767698
 ---------------------------------------------------------------------

 SCF Done:  E(ROHF) =  -299.131011786     A.U. after    8 cycles
 E2 =    -0.1047388463D+01 EUMP2 =    -0.30017840024915D+03
 CCSD(T)
 CCSD(T)= -0.30018221992D+03

 Unable to determine electronic state:  an orbital has unidentified symmetry.
 Alpha  occ. eigenvalues --  -20.48766 -20.48766 -20.48022 -20.48022  -1.30384
 Alpha  occ. eigenvalues --   -1.30382  -0.92393  -0.92369  -0.47700  -0.47700
 Alpha  occ. eigenvalues --   -0.45132  -0.45127  -0.42503  -0.42335  -0.26534
 Alpha  occ. eigenvalues --   -0.26533  -0.07568
 Alpha virt. eigenvalues --    0.00309   0.49749   0.49830   0.89708   0.89882
 Alpha virt. eigenvalues --    0.92454   0.92456   0.92591   0.92594   0.95844
 Alpha virt. eigenvalues --    0.95954   1.01727   1.01734   1.01934   1.01941

 Mulliken charges and spin densities:
               1          2
     1  O   -0.225341   0.259746
     2  O   -0.274659   0.240254
     3  O   -0.274659   0.240254
     4  O   -0.225341   0.259746
 Sum of Mulliken charges =  -1.00000   1.00000

 Dipole moment (field-independent basis, Debye):
    X=             -0.0000    Y=              0.0000    Z=              0.0000  Tot=              0.0000
 Quadrupole moment (field-independent basis, Debye-Ang):
   XX=            -21.4416   YY=            -23.7608   ZZ=            -84.6182
   XY=              0.0000   XZ=              0.0000   YZ=              0.0000

 36121\CCSD=-300.1275766\CCSD(T)=-300.1822199\RMSD=1.152e-09\PG=D*H [C*
 Normal termination of Gaussian 16 at Sun Jan 15 01:59:05 2023.
