 Gaussian 16, Revision A.03,
 Gaussian 16:  ES64L-G16RevA.03 25-Dec-2016

 ---------------------------------------------------------------
 #p ROCCSD(T)/cc-pVTZ Guess=Read SCF=(VeryTight,CDIIS,VShift=10)
 ---------------------------------------------------------------

 --------
 O2_O2_26
 --------
 Symbolic Z-matrix:
 Charge = -1 Multiplicity = 2

                         Standard orientation:
 ---------------------------------------------------------------------
 Center     Atomic      Atomic             Coordinates (Angstroms)
 Number     Number       Type             X           Y           Z
 ---------------------------------------------------------------------
      1          8           0        0.000000    0.000000    0.976637
      2          8           0        0.000000    0.000000    2.329017
      3          8           0        0.000000    0.000000   -2.329017
      4          8           0        0.000000    0.000000   -0.976637
 ---------------------------------------------------------------------

 SCF Done:  E(ROHF) =  -299.019504409     A.U. after    9 cycles
 E2 =    -0.1313098633D+01 EUMP2 =    -0.30033260304216D+03
 CCSD(T)
 CCSD(T)= -0.30022637320D+03

 Unable to determine electronic state:  an orbital has unidentified symmetry.
 Alpha  occ. eigenvalues --  -20.51050 -20.51048 -20.42283 -20.42283  -1.29406
 Alpha  occ. eigenvalues --   -1.27542  -0.93482  -0.86632  -0.48738  -0.47520
 Alpha  occ. eigenvalues --   -0.46289  -0.40276  -0.36340  -0.36244  -0.26151
 Alpha  occ. eigenvalues --   -0.23865  -0.09821
 Alpha virt. eigenvalues --    0.12365   0.51658   0.60471   0.90552   0.91564
 Alpha virt. eigenvalues --    0.93342   0.93820   0.96890   0.98525   1.01138
 Alpha virt. eigenvalues --    1.03111   1.12007   1.12656   1.16262   1.18516

 Mulliken charges and spin densities:
               1          2
     1  O   -0.087878   0.350490
     2  O   -0.412122   0.149510
     3  O   -0.412122   0.149510
     4  O   -0.087878   0.350490
 Sum of Mulliken charges =  -1.00000   1.00000

 Dipole moment (field-independent basis, Debye):
    X=             -0.0000    Y=             -0.0000    Z=             -0.0000  Tot=              0.0000
 Quadrupole moment (field-independent basis, Debye-Ang):
   XX=            -22.6112   YY=            -23.1442   ZZ=            -44.7175
   XY=              0.0000   XZ=              0.0000   YZ=              0.0000

 486\CCSD=-300.1176482\CCSD(T)=-300.2263732\RMSD=7.807e-09\PG=D*H [C*(O
 Normal termination of Gaussian 16 at Sat Jan 14 20:02:10 2023.
