 Gaussian 16, Revision A.03,
 Gaussian 16:  ES64L-G16RevA.03 25-Dec-2016

 ---------------------------------------------------------------
 #p ROCCSD(T)/cc-pVTZ Guess=Read SCF=(VeryTight,CDIIS,VShift=10)
 ---------------------------------------------------------------

 ---------
 O2_O2_271
 ---------
 Symbolic Z-matrix:
 Charge = -1 Multiplicity = 2

                         Standard orientation:
 ---------------------------------------------------------------------
 Center     Atomic      Atomic             Coordinates (Angstroms)
 Number     Number       Type             X           Y           Z
 ---------------------------------------------------------------------
      1          8           0        0.000000    0.000000    2.711063
      2          8           0        0.000000    0.000000    4.063444
      3          8           0        0.000000    0.000000   -4.063444
      4          8           0        0.000000    0.000000   -2.711063
 ---------------------------------------------------------------------

 SCF Done:  E(ROHF) =  -299.131031202     A.U. after    8 cycles
 E2 =    -0.1047280782D+01 EUMP2 =    -0.30017831198391D+03
 CCSD(T)
 CCSD(T)= -0.30018224014D+03

 Unable to determine electronic state:  an orbital has unidentified symmetry.
 Alpha  occ. eigenvalues --  -20.48712 -20.48712 -20.47944 -20.47944  -1.30319
 Alpha  occ. eigenvalues --   -1.30316  -0.92327  -0.92301  -0.47635  -0.47635
 Alpha  occ. eigenvalues --   -0.45066  -0.45059  -0.42442  -0.42265  -0.26468
 Alpha  occ. eigenvalues --   -0.26467  -0.07572
 Alpha virt. eigenvalues --    0.00444   0.49801   0.49917   0.89741   0.89989
 Alpha virt. eigenvalues --    0.92517   0.92521   0.92654   0.92658   0.95892
 Alpha virt. eigenvalues --    0.96055   1.01791   1.01802   1.01998   1.02008

 Mulliken charges and spin densities:
               1          2
     1  O   -0.224511   0.260068
     2  O   -0.275489   0.239932
     3  O   -0.275489   0.239932
     4  O   -0.224511   0.260068
 Sum of Mulliken charges =  -1.00000   1.00000

 Dipole moment (field-independent basis, Debye):
    X=             -0.0000    Y=              0.0000    Z=              0.0000  Tot=              0.0000
 Quadrupole moment (field-independent basis, Debye-Ang):
   XX=            -21.4418   YY=            -23.7610   ZZ=            -82.8003
   XY=              0.0000   XZ=              0.0000   YZ=              0.0000

 1529\CCSD=-300.1275983\CCSD(T)=-300.1822401\RMSD=1.216e-09\PG=D*H [C*(
 Normal termination of Gaussian 16 at Sun Jan 15 01:48:28 2023.
