 Gaussian 16, Revision A.03,
 Gaussian 16:  ES64L-G16RevA.03 25-Dec-2016

 ---------------------------------------------------------------
 #p ROCCSD(T)/cc-pVTZ Guess=Read SCF=(VeryTight,CDIIS,VShift=10)
 ---------------------------------------------------------------

 ---------
 O2_O2_104
 ---------
 Symbolic Z-matrix:
 Charge = -1 Multiplicity = 2

                         Standard orientation:
 ---------------------------------------------------------------------
 Center     Atomic      Atomic             Coordinates (Angstroms)
 Number     Number       Type             X           Y           Z
 ---------------------------------------------------------------------
      1          8           0        0.000000    0.000000    1.528822
      2          8           0        0.000000    0.000000    2.881202
      3          8           0        0.000000    0.000000   -2.881202
      4          8           0        0.000000    0.000000   -1.528822
 ---------------------------------------------------------------------

 SCF Done:  E(ROHF) =  -298.964813561     A.U. after   11 cycles
 E2 =    -0.1589760272D+01 EUMP2 =    -0.30055457383301D+03
 CCSD(T)
 CCSD(T)= -0.30022693242D+03

 Unable to determine electronic state:  an orbital has unidentified symmetry.
 Alpha  occ. eigenvalues --  -20.49721 -20.49720 -20.46231 -20.46230  -1.29359
 Alpha  occ. eigenvalues --   -1.29264  -0.91341  -0.90792  -0.48237  -0.48079
 Alpha  occ. eigenvalues --   -0.44407  -0.43098  -0.39939  -0.39064  -0.26896
 Alpha  occ. eigenvalues --   -0.26700  -0.07109
 Alpha virt. eigenvalues --    0.06188   0.48500   0.54903   0.84992   0.91550
 Alpha virt. eigenvalues --    0.92712   0.93551   0.94229   0.94768   0.95989
 Alpha virt. eigenvalues --    1.00016   1.02123   1.06388   1.08511   1.12965

 Mulliken charges and spin densities:
               1          2
     1  O   -0.179986   0.302918
     2  O   -0.320014   0.197082
     3  O   -0.320014   0.197082
     4  O   -0.179986   0.302918
 Sum of Mulliken charges =  -1.00000   1.00000

 Dipole moment (field-independent basis, Debye):
    X=             -0.0000    Y=             -0.0000    Z=              0.0000  Tot=              0.0000
 Quadrupole moment (field-independent basis, Debye-Ang):
   XX=            -22.4881   YY=            -23.0967   ZZ=            -52.8009
   XY=              0.0000   XZ=              0.0000   YZ=              0.0000

 541144\CCSD=-300.0932464\CCSD(T)=-300.2269324\RMSD=7.027e-09\PG=D*H [C
 Normal termination of Gaussian 16 at Sat Jan 14 21:59:43 2023.
