 Gaussian 16, Revision A.03,
 Gaussian 16:  ES64L-G16RevA.03 25-Dec-2016

 ---------------------------------------------------------------
 #p ROCCSD(T)/cc-pVTZ Guess=Read SCF=(VeryTight,CDIIS,VShift=10)
 ---------------------------------------------------------------

 ---------
 O2_O2_162
 ---------
 Symbolic Z-matrix:
 Charge = -1 Multiplicity = 2

                         Standard orientation:
 ---------------------------------------------------------------------
 Center     Atomic      Atomic             Coordinates (Angstroms)
 Number     Number       Type             X           Y           Z
 ---------------------------------------------------------------------
      1          8           0        0.000000    0.000000    1.939421
      2          8           0        0.000000    0.000000    3.291801
      3          8           0        0.000000    0.000000   -3.291801
      4          8           0        0.000000    0.000000   -1.939421
 ---------------------------------------------------------------------

 SCF Done:  E(ROHF) =  -299.132034252     A.U. after    8 cycles
 E2 =    -0.1045318866D+01 EUMP2 =    -0.30017735311789D+03
 CCSD(T)
 CCSD(T)= -0.30018341988D+03

 Unable to determine electronic state:  an orbital has unidentified symmetry.
 Alpha  occ. eigenvalues --  -20.47827 -20.47826 -20.46519 -20.46518  -1.29182
 Alpha  occ. eigenvalues --   -1.29166  -0.91194  -0.91076  -0.46506  -0.46484
 Alpha  occ. eigenvalues --   -0.43991  -0.43735  -0.41418  -0.40997  -0.25330
 Alpha  occ. eigenvalues --   -0.25278  -0.07719
 Alpha virt. eigenvalues --    0.02956   0.49002   0.52849   0.85504   0.92975
 Alpha virt. eigenvalues --    0.93405   0.93538   0.93845   0.93982   0.95006
 Alpha virt. eigenvalues --    1.02321   1.02542   1.03651   1.03839   1.05660

 Mulliken charges and spin densities:
               1          2
     1  O   -0.207616   0.266139
     2  O   -0.292384   0.233861
     3  O   -0.292384   0.233861
     4  O   -0.207616   0.266139
 Sum of Mulliken charges =  -1.00000   1.00000

 Dipole moment (field-independent basis, Debye):
    X=             -0.0000    Y=              0.0000    Z=             -0.0000  Tot=              0.0000
 Quadrupole moment (field-independent basis, Debye-Ang):
   XX=            -21.4519   YY=            -23.7657   ZZ=            -61.2374
   XY=              0.0000   XZ=              0.0000   YZ=              0.0000

 375271\CCSD=-300.1287577\CCSD(T)=-300.1834199\RMSD=2.876e-09\PG=D*H [C
 Normal termination of Gaussian 16 at Sat Jan 14 23:22:47 2023.
