 Gaussian 16, Revision A.03,
 Gaussian 16:  ES64L-G16RevA.03 25-Dec-2016

 ---------------------------------------------------------------
 #p ROCCSD(T)/cc-pVTZ Guess=Read SCF=(VeryTight,CDIIS,VShift=10)
 ---------------------------------------------------------------

 ---------
 O2_O2_145
 ---------
 Symbolic Z-matrix:
 Charge = -1 Multiplicity = 2

                         Standard orientation:
 ---------------------------------------------------------------------
 Center     Atomic      Atomic             Coordinates (Angstroms)
 Number     Number       Type             X           Y           Z
 ---------------------------------------------------------------------
      1          8           0        0.000000    0.000000    1.819073
      2          8           0        0.000000    0.000000    3.171453
      3          8           0        0.000000    0.000000   -3.171453
      4          8           0        0.000000    0.000000   -1.819073
 ---------------------------------------------------------------------

 SCF Done:  E(ROHF) =  -299.132533515     A.U. after    8 cycles
 E2 =    -0.1044922416D+01 EUMP2 =    -0.30017745593077D+03
 CCSD(T)
 CCSD(T)= -0.30018404887D+03

 Unable to determine electronic state:  an orbital has unidentified symmetry.
 Alpha  occ. eigenvalues --  -20.47665 -20.47665 -20.46216 -20.46216  -1.28955
 Alpha  occ. eigenvalues --   -1.28929  -0.90980  -0.90803  -0.46284  -0.46245
 Alpha  occ. eigenvalues --   -0.43824  -0.43405  -0.41222  -0.40720  -0.25113
 Alpha  occ. eigenvalues --   -0.25021  -0.07784
 Alpha virt. eigenvalues --    0.03524   0.48637   0.53641   0.84167   0.93158
 Alpha virt. eigenvalues --    0.93445   0.93571   0.94212   0.94346   0.94877
 Alpha virt. eigenvalues --    1.02117   1.02350   1.04422   1.04597   1.10944

 Mulliken charges and spin densities:
               1          2
     1  O   -0.203553   0.267319
     2  O   -0.296447   0.232681
     3  O   -0.296447   0.232681
     4  O   -0.203553   0.267319
 Sum of Mulliken charges =  -1.00000   1.00000

 Dipole moment (field-independent basis, Debye):
    X=             -0.0000    Y=              0.0000    Z=             -0.0000  Tot=              0.0000
 Quadrupole moment (field-independent basis, Debye-Ang):
   XX=            -21.4570   YY=            -23.7670   ZZ=            -58.4187
   XY=              0.0000   XZ=              0.0000   YZ=              0.0000

 381844\CCSD=-300.1293571\CCSD(T)=-300.1840489\RMSD=5.065e-09\PG=D*H [C
 Normal termination of Gaussian 16 at Sat Jan 14 22:59:22 2023.
