 Gaussian 16, Revision A.03,
 Gaussian 16:  ES64L-G16RevA.03 25-Dec-2016

 ---------------------------------------------------------------
 #p ROCCSD(T)/cc-pVTZ Guess=Read SCF=(VeryTight,CDIIS,VShift=10)
 ---------------------------------------------------------------

 --------
 O2_O2_54
 --------
 Symbolic Z-matrix:
 Charge = -1 Multiplicity = 2

                         Standard orientation:
 ---------------------------------------------------------------------
 Center     Atomic      Atomic             Coordinates (Angstroms)
 Number     Number       Type             X           Y           Z
 ---------------------------------------------------------------------
      1          8           0        0.000000    0.000000    1.174857
      2          8           0        0.000000    0.000000    2.527237
      3          8           0        0.000000    0.000000   -2.527237
      4          8           0        0.000000    0.000000   -1.174857
 ---------------------------------------------------------------------

 SCF Done:  E(ROHF) =  -298.998176843     A.U. after   12 cycles
 E2 =    -0.1413350102D+01 EUMP2 =    -0.30041152694476D+03
 CCSD(T)
 CCSD(T)= -0.30023084903D+03

 Unable to determine electronic state:  an orbital has unidentified symmetry.
 Alpha  occ. eigenvalues --  -20.50369 -20.50368 -20.44263 -20.44263  -1.29001
 Alpha  occ. eigenvalues --   -1.28406  -0.91650  -0.88958  -0.48066  -0.47178
 Alpha  occ. eigenvalues --   -0.45458  -0.40247  -0.39769  -0.37684  -0.26374
 Alpha  occ. eigenvalues --   -0.25313  -0.08338
 Alpha virt. eigenvalues --    0.09366   0.50650   0.57789   0.89961   0.91845
 Alpha virt. eigenvalues --    0.92435   0.94457   0.95853   0.97547   0.99880
 Alpha virt. eigenvalues --    1.01839   1.02177   1.12882   1.13031   1.14097

 Mulliken charges and spin densities:
               1          2
     1  O   -0.137243   0.329608
     2  O   -0.362757   0.170392
     3  O   -0.362757   0.170392
     4  O   -0.137243   0.329608
 Sum of Mulliken charges =  -1.00000   1.00000

 Dipole moment (field-independent basis, Debye):
    X=             -0.0000    Y=              0.0000    Z=             -0.0000  Tot=              0.0000
 Quadrupole moment (field-independent basis, Debye-Ang):
   XX=            -22.5805   YY=            -23.1438   ZZ=            -46.8208
   XY=              0.0000   XZ=              0.0000   YZ=              0.0000

 69526\CCSD=-300.1103456\CCSD(T)=-300.230849\RMSD=7.662e-10\PG=D*H [C*(
 Normal termination of Gaussian 16 at Sat Jan 14 20:44:30 2023.
