 Gaussian 16, Revision A.03,
 Gaussian 16:  ES64L-G16RevA.03 25-Dec-2016

 ---------------------------------------------------------------
 #p ROCCSD(T)/cc-pVTZ Guess=Read SCF=(VeryTight,CDIIS,VShift=10)
 ---------------------------------------------------------------

 ---------
 O2_O2_217
 ---------
 Symbolic Z-matrix:
 Charge = -1 Multiplicity = 2

                         Standard orientation:
 ---------------------------------------------------------------------
 Center     Atomic      Atomic             Coordinates (Angstroms)
 Number     Number       Type             X           Y           Z
 ---------------------------------------------------------------------
      1          8           0        0.000000    0.000000    2.328781
      2          8           0        0.000000    0.000000    3.681162
      3          8           0        0.000000    0.000000   -3.681162
      4          8           0        0.000000    0.000000   -2.328781
 ---------------------------------------------------------------------

 SCF Done:  E(ROHF) =  -299.131260325     A.U. after    8 cycles
 E2 =    -0.1046432144D+01 EUMP2 =    -0.30017769246904D+03
 CCSD(T)
 CCSD(T)= -0.30018249161D+03

 Unable to determine electronic state:  an orbital has unidentified symmetry.
 Alpha  occ. eigenvalues --  -20.48310 -20.48310 -20.47331 -20.47331  -1.29820
 Alpha  occ. eigenvalues --   -1.29815  -0.91824  -0.91779  -0.47137  -0.47134
 Alpha  occ. eigenvalues --   -0.44564  -0.44519  -0.41984  -0.41724  -0.25963
 Alpha  occ. eigenvalues --   -0.25956  -0.07612
 Alpha virt. eigenvalues --    0.01505   0.49918   0.50857   0.89284   0.91298
 Alpha virt. eigenvalues --    0.92983   0.93033   0.93120   0.93171   0.95828
 Alpha virt. eigenvalues --    0.97572   1.02229   1.02381   1.02436   1.02584

 Mulliken charges and spin densities:
               1          2
     1  O   -0.217670   0.262672
     2  O   -0.282330   0.237328
     3  O   -0.282330   0.237328
     4  O   -0.217670   0.262672
 Sum of Mulliken charges =  -1.00000   1.00000

 Dipole moment (field-independent basis, Debye):
    X=             -0.0000    Y=             -0.0000    Z=             -0.0000  Tot=              0.0000
 Quadrupole moment (field-independent basis, Debye-Ang):
   XX=            -21.4442   YY=            -23.7627   ZZ=            -71.3701
   XY=              0.0000   XZ=              0.0000   YZ=              0.0000

 36495\CCSD=-300.1278565\CCSD(T)=-300.1824916\RMSD=1.572e-09\PG=D*H [C*
 Normal termination of Gaussian 16 at Sun Jan 15 00:35:39 2023.
