 Gaussian 16, Revision A.03,
 Gaussian 16:  ES64L-G16RevA.03 25-Dec-2016

 ---------------------------------------------------------------
 #p ROCCSD(T)/cc-pVTZ Guess=Read SCF=(VeryTight,CDIIS,VShift=10)
 ---------------------------------------------------------------

 ---------
 O2_O2_268
 ---------
 Symbolic Z-matrix:
 Charge = -1 Multiplicity = 2

                         Standard orientation:
 ---------------------------------------------------------------------
 Center     Atomic      Atomic             Coordinates (Angstroms)
 Number     Number       Type             X           Y           Z
 ---------------------------------------------------------------------
      1          8           0        0.000000    0.000000    2.689826
      2          8           0        0.000000    0.000000    4.042206
      3          8           0        0.000000    0.000000   -4.042206
      4          8           0        0.000000    0.000000   -2.689826
 ---------------------------------------------------------------------

 SCF Done:  E(ROHF) =  -299.131039071     A.U. after    8 cycles
 E2 =    -0.1047239339D+01 EUMP2 =    -0.30017827840933D+03
 CCSD(T)
 CCSD(T)= -0.30018224841D+03

 Unable to determine electronic state:  an orbital has unidentified symmetry.
 Alpha  occ. eigenvalues --  -20.48692 -20.48692 -20.47913 -20.47913  -1.30294
 Alpha  occ. eigenvalues --   -1.30291  -0.92302  -0.92276  -0.47610  -0.47610
 Alpha  occ. eigenvalues --   -0.45040  -0.45033  -0.42419  -0.42239  -0.26443
 Alpha  occ. eigenvalues --   -0.26442  -0.07574
 Alpha virt. eigenvalues --    0.00497   0.49819   0.49952   0.89750   0.90034
 Alpha virt. eigenvalues --    0.92541   0.92545   0.92678   0.92683   0.95908
 Alpha virt. eigenvalues --    0.96096   1.01815   1.01828   1.02022   1.02034

 Mulliken charges and spin densities:
               1          2
     1  O   -0.224189   0.260192
     2  O   -0.275811   0.239808
     3  O   -0.275811   0.239808
     4  O   -0.224189   0.260192
 Sum of Mulliken charges =  -1.00000   1.00000

 Dipole moment (field-independent basis, Debye):
    X=             -0.0000    Y=             -0.0000    Z=              0.0000  Tot=              0.0000
 Quadrupole moment (field-independent basis, Debye-Ang):
   XX=            -21.4419   YY=            -23.7611   ZZ=            -82.1268
   XY=              0.0000   XZ=              0.0000   YZ=              0.0000

 361657\CCSD=-300.1276072\CCSD(T)=-300.1822484\RMSD=1.241e-09\PG=D*H [C
 Normal termination of Gaussian 16 at Sun Jan 15 01:44:25 2023.
