 Gaussian 16, Revision A.03,
 Gaussian 16:  ES64L-G16RevA.03 25-Dec-2016

 ---------------------------------------------------------------
 #p ROCCSD(T)/cc-pVTZ Guess=Read SCF=(VeryTight,CDIIS,VShift=10)
 ---------------------------------------------------------------

 -------
 O2_O2_2
 -------
 Symbolic Z-matrix:
 Charge = -1 Multiplicity = 2

                         Standard orientation:
 ---------------------------------------------------------------------
 Center     Atomic      Atomic             Coordinates (Angstroms)
 Number     Number       Type             X           Y           Z
 ---------------------------------------------------------------------
      1          8           0        0.000000    0.000000    0.806734
      2          8           0        0.000000    0.000000    2.159114
      3          8           0        0.000000    0.000000   -2.159114
      4          8           0        0.000000    0.000000   -0.806734
 ---------------------------------------------------------------------

 SCF Done:  E(ROHF) =  -299.003503056     A.U. after   12 cycles
 E2 =    -0.1242181992D+01 EUMP2 =    -0.30024568504782D+03
 CCSD(T)
 CCSD(T)= -0.30018623435D+03

 Unable to determine electronic state:  an orbital has unidentified symmetry.
 Alpha  occ. eigenvalues --  -20.51934 -20.51927 -20.39403 -20.39403  -1.31798
 Alpha  occ. eigenvalues --   -1.26203  -0.98021  -0.82941  -0.51258  -0.50471
 Alpha  occ. eigenvalues --   -0.44960  -0.42309  -0.34481  -0.28679  -0.25869
 Alpha  occ. eigenvalues --   -0.21768  -0.11821
 Alpha virt. eigenvalues --    0.16241   0.51841   0.64943   0.91472   0.91562
 Alpha virt. eigenvalues --    0.92826   0.94388   0.98111   0.99696   1.03474
 Alpha virt. eigenvalues --    1.05517   1.10828   1.11854   1.18301   1.20668

 Mulliken charges and spin densities:
               1          2
     1  O   -0.015173   0.368509
     2  O   -0.484827   0.131491
     3  O   -0.484827   0.131491
     4  O   -0.015173   0.368509
 Sum of Mulliken charges =  -1.00000   1.00000

 Dipole moment (field-independent basis, Debye):
    X=             -0.0000    Y=              0.0000    Z=              0.0000  Tot=              0.0000
 Quadrupole moment (field-independent basis, Debye-Ang):
   XX=            -22.5241   YY=            -23.0422   ZZ=            -44.3532
   XY=              0.0000   XZ=              0.0000   YZ=              0.0000

 04\CCSD=-300.0891467\CCSD(T)=-300.1862344\RMSD=5.289e-10\PG=D*H [C*(O1
 Normal termination of Gaussian 16 at Sat Jan 14 19:27:23 2023.
