 Gaussian 16, Revision A.03,
 Gaussian 16:  ES64L-G16RevA.03 25-Dec-2016

 ---------------------------------------------------------------
 #p ROCCSD(T)/cc-pVTZ Guess=Read SCF=(VeryTight,CDIIS,VShift=10)
 ---------------------------------------------------------------

 --------
 O2_O2_22
 --------
 Symbolic Z-matrix:
 Charge = -1 Multiplicity = 2

                         Standard orientation:
 ---------------------------------------------------------------------
 Center     Atomic      Atomic             Coordinates (Angstroms)
 Number     Number       Type             X           Y           Z
 ---------------------------------------------------------------------
      1          8           0        0.000000    0.000000    0.948320
      2          8           0        0.000000    0.000000    2.300700
      3          8           0        0.000000    0.000000   -2.300700
      4          8           0        0.000000    0.000000   -0.948320
 ---------------------------------------------------------------------

 SCF Done:  E(ROHF) =  -299.020840020     A.U. after    9 cycles
 E2 =    -0.1299571521D+01 EUMP2 =    -0.30032041154008D+03
 CCSD(T)
 CCSD(T)= -0.30022353930D+03

 Unable to determine electronic state:  an orbital has unidentified symmetry.
 Alpha  occ. eigenvalues --  -20.51163 -20.51160 -20.41901 -20.41901  -1.29583
 Alpha  occ. eigenvalues --   -1.27367  -0.93982  -0.86150  -0.48963  -0.47941
 Alpha  occ. eigenvalues --   -0.46113  -0.40450  -0.36086  -0.35353  -0.26118
 Alpha  occ. eigenvalues --   -0.23583  -0.10107
 Alpha virt. eigenvalues --    0.12913   0.51764   0.61011   0.90742   0.91530
 Alpha virt. eigenvalues --    0.93565   0.93712   0.97064   0.98690   1.01434
 Alpha virt. eigenvalues --    1.03421   1.12070   1.12558   1.16667   1.18935

 Mulliken charges and spin densities:
               1          2
     1  O   -0.078489   0.353649
     2  O   -0.421511   0.146351
     3  O   -0.421511   0.146351
     4  O   -0.078489   0.353649
 Sum of Mulliken charges =  -1.00000   1.00000

 Dipole moment (field-independent basis, Debye):
    X=             -0.0000    Y=              0.0000    Z=              0.0000  Tot=              0.0000
 Quadrupole moment (field-independent basis, Debye-Ang):
   XX=            -22.6075   YY=            -23.1369   ZZ=            -44.5395
   XY=              0.0000   XZ=              0.0000   YZ=              0.0000

 CCSD=-300.1167482\CCSD(T)=-300.2235393\RMSD=8.666e-09\PG=D*H [C*(O1O1.
 Normal termination of Gaussian 16 at Sat Jan 14 19:56:24 2023.
