 Gaussian 16, Revision A.03,
 Gaussian 16:  ES64L-G16RevA.03 25-Dec-2016

 ---------------------------------------------------------------
 #p ROCCSD(T)/cc-pVTZ Guess=Read SCF=(VeryTight,CDIIS,VShift=10)
 ---------------------------------------------------------------

 -------
 O2_O2_6
 -------
 Symbolic Z-matrix:
 Charge = -1 Multiplicity = 2

                         Standard orientation:
 ---------------------------------------------------------------------
 Center     Atomic      Atomic             Coordinates (Angstroms)
 Number     Number       Type             X           Y           Z
 ---------------------------------------------------------------------
      1          8           0        0.000000    0.000000    0.835051
      2          8           0        0.000000    0.000000    2.187431
      3          8           0        0.000000    0.000000   -2.187431
      4          8           0        0.000000    0.000000   -0.835051
 ---------------------------------------------------------------------

 SCF Done:  E(ROHF) =  -299.011741667     A.U. after   12 cycles
 E2 =    -0.1251611991D+01 EUMP2 =    -0.30026335365828D+03
 CCSD(T)
 CCSD(T)= -0.30019804532D+03

 Unable to determine electronic state:  an orbital has unidentified symmetry.
 Alpha  occ. eigenvalues --  -20.51727 -20.51721 -20.39996 -20.39996  -1.31077
 Alpha  occ. eigenvalues --   -1.26479  -0.96976  -0.83699  -0.50578  -0.49920
 Alpha  occ. eigenvalues --   -0.45231  -0.41743  -0.34852  -0.30388  -0.25939
 Alpha  occ. eigenvalues --   -0.22192  -0.11448
 Alpha virt. eigenvalues --    0.15494   0.51920   0.63936   0.91459   0.91463
 Alpha virt. eigenvalues --    0.93086   0.94309   0.97874   0.99466   1.02990
 Alpha virt. eigenvalues --    1.05032   1.11223   1.12019   1.18031   1.20375

 Mulliken charges and spin densities:
               1          2
     1  O   -0.030637   0.365801
     2  O   -0.469363   0.134199
     3  O   -0.469363   0.134199
     4  O   -0.030637   0.365801
 Sum of Mulliken charges =  -1.00000   1.00000

 Dipole moment (field-independent basis, Debye):
    X=             -0.0000    Y=              0.0000    Z=             -0.0000  Tot=              0.0000
 Quadrupole moment (field-independent basis, Debye-Ang):
   XX=            -22.5518   YY=            -23.0710   ZZ=            -44.2773
   XY=              0.0000   XZ=              0.0000   YZ=              0.0000

 923\CCSD=-300.0991198\CCSD(T)=-300.1980453\RMSD=1.161e-09\PG=D*H [C*(O
 Normal termination of Gaussian 16 at Sat Jan 14 19:33:14 2023.
