 Gaussian 16, Revision A.03,
 Gaussian 16:  ES64L-G16RevA.03 25-Dec-2016

 ---------------------------------------------------------------
 #p ROCCSD(T)/cc-pVTZ Guess=Read SCF=(VeryTight,CDIIS,VShift=10)
 ---------------------------------------------------------------

 ---------
 O2_O2_184
 ---------
 Symbolic Z-matrix:
 Charge = -1 Multiplicity = 2

                         Standard orientation:
 ---------------------------------------------------------------------
 Center     Atomic      Atomic             Coordinates (Angstroms)
 Number     Number       Type             X           Y           Z
 ---------------------------------------------------------------------
      1          8           0        0.000000    0.000000    2.095165
      2          8           0        0.000000    0.000000    3.447545
      3          8           0        0.000000    0.000000   -3.447545
      4          8           0        0.000000    0.000000   -2.095165
 ---------------------------------------------------------------------

 SCF Done:  E(ROHF) =  -299.131606305     A.U. after    8 cycles
 E2 =    -0.1045793216D+01 EUMP2 =    -0.30017739952165D+03
 CCSD(T)
 CCSD(T)= -0.30018289529D+03

 Unable to determine electronic state:  an orbital has unidentified symmetry.
 Alpha  occ. eigenvalues --  -20.48028 -20.48027 -20.46871 -20.46871  -1.29455
 Alpha  occ. eigenvalues --   -1.29445  -0.91459  -0.91384  -0.46774  -0.46764
 Alpha  occ. eigenvalues --   -0.44222  -0.44090  -0.41657  -0.41314  -0.25597
 Alpha  occ. eigenvalues --   -0.25573  -0.07662
 Alpha virt. eigenvalues --    0.02316   0.49513   0.51921   0.87488   0.92461
 Alpha virt. eigenvalues --    0.93266   0.93402   0.93464   0.93601   0.95316
 Alpha virt. eigenvalues --    1.00941   1.02386   1.02598   1.02984   1.03181

 Mulliken charges and spin densities:
               1          2
     1  O   -0.212121   0.264666
     2  O   -0.287879   0.235334
     3  O   -0.287879   0.235334
     4  O   -0.212121   0.264666
 Sum of Mulliken charges =  -1.00000   1.00000

 Dipole moment (field-independent basis, Debye):
    X=             -0.0000    Y=              0.0000    Z=             -0.0000  Tot=              0.0000
 Quadrupole moment (field-independent basis, Debye-Ang):
   XX=            -21.4476   YY=            -23.7643   ZZ=            -65.1068
   XY=              0.0000   XZ=              0.0000   YZ=              0.0000

 62\CCSD=-300.1282532\CCSD(T)=-300.1828953\RMSD=1.637e-09\PG=D*H [C*(O1
 Normal termination of Gaussian 16 at Sat Jan 14 23:51:43 2023.
