 Gaussian 16, Revision A.03,
 Gaussian 16:  ES64L-G16RevA.03 25-Dec-2016

 ---------------------------------------------------------------
 #p ROCCSD(T)/cc-pVTZ Guess=Read SCF=(VeryTight,CDIIS,VShift=10)
 ---------------------------------------------------------------

 ---------
 O2_O2_164
 ---------
 Symbolic Z-matrix:
 Charge = -1 Multiplicity = 2

                         Standard orientation:
 ---------------------------------------------------------------------
 Center     Atomic      Atomic             Coordinates (Angstroms)
 Number     Number       Type             X           Y           Z
 ---------------------------------------------------------------------
      1          8           0        0.000000    0.000000    1.953579
      2          8           0        0.000000    0.000000    3.305959
      3          8           0        0.000000    0.000000   -3.305959
      4          8           0        0.000000    0.000000   -1.953579
 ---------------------------------------------------------------------

 SCF Done:  E(ROHF) =  -299.131986304     A.U. after    8 cycles
 E2 =    -0.1045363572D+01 EUMP2 =    -0.30017734987632D+03
 CCSD(T)
 CCSD(T)= -0.30018336018D+03

 Unable to determine electronic state:  an orbital has unidentified symmetry.
 Alpha  occ. eigenvalues --  -20.47845 -20.47845 -20.46552 -20.46552  -1.29208
 Alpha  occ. eigenvalues --   -1.29193  -0.91219  -0.91106  -0.46531  -0.46511
 Alpha  occ. eigenvalues --   -0.44012  -0.43770  -0.41440  -0.41028  -0.25355
 Alpha  occ. eigenvalues --   -0.25307  -0.07713
 Alpha virt. eigenvalues --    0.02894   0.49051   0.52759   0.85689   0.92941
 Alpha virt. eigenvalues --    0.93396   0.93529   0.93806   0.93943   0.95028
 Alpha virt. eigenvalues --    1.02336   1.02556   1.03577   1.03766   1.05130

 Mulliken charges and spin densities:
               1          2
     1  O   -0.208058   0.266002
     2  O   -0.291942   0.233998
     3  O   -0.291942   0.233998
     4  O   -0.208058   0.266002
 Sum of Mulliken charges =  -1.00000   1.00000

 Dipole moment (field-independent basis, Debye):
    X=             -0.0000    Y=              0.0000    Z=              0.0000  Tot=              0.0000
 Quadrupole moment (field-independent basis, Debye-Ang):
   XX=            -21.4514   YY=            -23.7656   ZZ=            -61.5789
   XY=              0.0000   XZ=              0.0000   YZ=              0.0000

 374639\CCSD=-300.1287006\CCSD(T)=-300.1833602\RMSD=2.691e-09\PG=D*H [C
 Normal termination of Gaussian 16 at Sat Jan 14 23:25:26 2023.
