 Gaussian 16, Revision A.03,
 Gaussian 16:  ES64L-G16RevA.03 25-Dec-2016

 ---------------------------------------------------------------
 #p ROCCSD(T)/cc-pVTZ Guess=Read SCF=(VeryTight,CDIIS,VShift=10)
 ---------------------------------------------------------------

 --------
 O2_O2_85
 --------
 Symbolic Z-matrix:
 Charge = -1 Multiplicity = 2

                         Standard orientation:
 ---------------------------------------------------------------------
 Center     Atomic      Atomic             Coordinates (Angstroms)
 Number     Number       Type             X           Y           Z
 ---------------------------------------------------------------------
      1          8           0        0.000000    0.000000    1.394315
      2          8           0        0.000000    0.000000    2.746695
      3          8           0        0.000000    0.000000   -2.746695
      4          8           0        0.000000    0.000000   -1.394315
 ---------------------------------------------------------------------

 SCF Done:  E(ROHF) =  -298.975050841     A.U. after   11 cycles
 E2 =    -0.1524402022D+01 EUMP2 =    -0.30049945286290D+03
 CCSD(T)
 CCSD(T)= -0.30022809111D+03

 Unable to determine electronic state:  an orbital has unidentified symmetry.
 Alpha  occ. eigenvalues --  -20.49872 -20.49871 -20.45621 -20.45621  -1.29167
 Alpha  occ. eigenvalues --   -1.28983  -0.91269  -0.90281  -0.48089  -0.47785
 Alpha  occ. eigenvalues --   -0.44557  -0.42337  -0.39806  -0.38630  -0.26679
 Alpha  occ. eigenvalues --   -0.26275  -0.07436
 Alpha virt. eigenvalues --    0.07184   0.49271   0.55869   0.89308   0.90860
 Alpha virt. eigenvalues --    0.92351   0.93004   0.94832   0.94838   0.96577
 Alpha virt. eigenvalues --    0.99699   1.01747   1.08654   1.10798   1.13062

 Mulliken charges and spin densities:
               1          2
     1  O   -0.168081   0.311372
     2  O   -0.331919   0.188628
     3  O   -0.331919   0.188628
     4  O   -0.168081   0.311372
 Sum of Mulliken charges =  -1.00000   1.00000

 Dipole moment (field-independent basis, Debye):
    X=             -0.0000    Y=              0.0000    Z=              0.0000  Tot=              0.0000
 Quadrupole moment (field-independent basis, Debye-Ang):
   XX=            -22.5182   YY=            -23.1126   ZZ=            -50.2981
   XY=              0.0000   XZ=              0.0000   YZ=              0.0000

 08\CCSD=-300.0984324\CCSD(T)=-300.2280911\RMSD=8.761e-09\PG=D*H [C*(O1
 Normal termination of Gaussian 16 at Sat Jan 14 21:30:54 2023.
