 Gaussian 16, Revision A.03,
 Gaussian 16:  ES64L-G16RevA.03 25-Dec-2016

 ---------------------------------------------------------------
 #p ROCCSD(T)/cc-pVTZ Guess=Read SCF=(VeryTight,CDIIS,VShift=10)
 ---------------------------------------------------------------

 --------
 O2_O2_15
 --------
 Symbolic Z-matrix:
 Charge = -1 Multiplicity = 2

                         Standard orientation:
 ---------------------------------------------------------------------
 Center     Atomic      Atomic             Coordinates (Angstroms)
 Number     Number       Type             X           Y           Z
 ---------------------------------------------------------------------
      1          8           0        0.000000    0.000000    0.898765
      2          8           0        0.000000    0.000000    2.251145
      3          8           0        0.000000    0.000000   -2.251145
      4          8           0        0.000000    0.000000   -0.898765
 ---------------------------------------------------------------------

 SCF Done:  E(ROHF) =  -299.020428635     A.U. after    9 cycles
 E2 =    -0.1277073361D+01 EUMP2 =    -0.30029750199666D+03
 CCSD(T)
 CCSD(T)= -0.30021576920D+03

 Unable to determine electronic state:  an orbital has unidentified symmetry.
 Alpha  occ. eigenvalues --  -20.51379 -20.51375 -20.41149 -20.41149  -1.30040
 Alpha  occ. eigenvalues --   -1.27019  -0.95076  -0.85187  -0.49500  -0.48754
 Alpha  occ. eigenvalues --   -0.45764  -0.40871  -0.35592  -0.33495  -0.26053
 Alpha  occ. eigenvalues --   -0.23031  -0.10657
 Alpha virt. eigenvalues --    0.13963   0.51899   0.62114   0.91087   0.91484
 Alpha virt. eigenvalues --    0.93495   0.93943   0.97394   0.99004   1.02040
 Alpha virt. eigenvalues --    1.04055   1.11865   1.12352   1.17316   1.19614

 Mulliken charges and spin densities:
               1          2
     1  O   -0.059908   0.359126
     2  O   -0.440092   0.140874
     3  O   -0.440092   0.140874
     4  O   -0.059908   0.359126
 Sum of Mulliken charges =  -1.00000   1.00000

 Dipole moment (field-independent basis, Debye):
    X=             -0.0000    Y=              0.0000    Z=              0.0000  Tot=              0.0000
 Quadrupole moment (field-independent basis, Debye-Ang):
   XX=            -22.5925   YY=            -23.1164   ZZ=            -44.3271
   XY=              0.0000   XZ=              0.0000   YZ=              0.0000

 \CCSD=-300.1124382\CCSD(T)=-300.2157692\RMSD=6.552e-09\PG=D*H [C*(O1O1
 Normal termination of Gaussian 16 at Sat Jan 14 19:46:19 2023.
