 Gaussian 16, Revision A.03,
 Gaussian 16:  ES64L-G16RevA.03 25-Dec-2016

 ---------------------------------------------------------------
 #p ROCCSD(T)/cc-pVTZ Guess=Read SCF=(VeryTight,CDIIS,VShift=10)
 ---------------------------------------------------------------

 --------
 O2_O2_12
 --------
 Symbolic Z-matrix:
 Charge = -1 Multiplicity = 2

                         Standard orientation:
 ---------------------------------------------------------------------
 Center     Atomic      Atomic             Coordinates (Angstroms)
 Number     Number       Type             X           Y           Z
 ---------------------------------------------------------------------
      1          8           0        0.000000    0.000000    0.877527
      2          8           0        0.000000    0.000000    2.229907
      3          8           0        0.000000    0.000000   -2.229907
      4          8           0        0.000000    0.000000   -0.877527
 ---------------------------------------------------------------------

 SCF Done:  E(ROHF) =  -299.018774344     A.U. after   10 cycles
 E2 =    -0.1268057572D+01 EUMP2 =    -0.30028683191592D+03
 CCSD(T)
 CCSD(T)= -0.30021100680D+03

 Unable to determine electronic state:  an orbital has unidentified symmetry.
 Alpha  occ. eigenvalues --  -20.51482 -20.51478 -20.40790 -20.40790  -1.30316
 Alpha  occ. eigenvalues --   -1.26851  -0.95643  -0.84724  -0.49802  -0.49129
 Alpha  occ. eigenvalues --   -0.45598  -0.41112  -0.35360  -0.32561  -0.26019
 Alpha  occ. eigenvalues --   -0.22768  -0.10911
 Alpha virt. eigenvalues --    0.14450   0.51930   0.62663   0.91226   0.91472
 Alpha virt. eigenvalues --    0.93380   0.94087   0.97547   0.99150   1.02335
 Alpha virt. eigenvalues --    1.04361   1.11692   1.12249   1.17570   1.19882

 Mulliken charges and spin densities:
               1          2
     1  O   -0.050914   0.361417
     2  O   -0.449086   0.138583
     3  O   -0.449086   0.138583
     4  O   -0.050914   0.361417
 Sum of Mulliken charges =  -1.00000   1.00000

 Dipole moment (field-independent basis, Debye):
    X=             -0.0000    Y=              0.0000    Z=              0.0000  Tot=              0.0000
 Quadrupole moment (field-independent basis, Debye-Ang):
   XX=            -22.5820   YY=            -23.1039   ZZ=            -44.2798
   XY=              0.0000   XZ=              0.0000   YZ=              0.0000

 39281\CCSD=-300.1091646\CCSD(T)=-300.2110068\RMSD=3.741e-09\PG=D*H [C*
 Normal termination of Gaussian 16 at Sat Jan 14 19:42:07 2023.
