 Gaussian 16, Revision A.03,
 Gaussian 16:  ES64L-G16RevA.03 25-Dec-2016

 ---------------------------------------------------------------
 #p ROCCSD(T)/cc-pVTZ Guess=Read SCF=(VeryTight,CDIIS,VShift=10)
 ---------------------------------------------------------------

 ---------
 O2_O2_109
 ---------
 Symbolic Z-matrix:
 Charge = -1 Multiplicity = 2

                         Standard orientation:
 ---------------------------------------------------------------------
 Center     Atomic      Atomic             Coordinates (Angstroms)
 Number     Number       Type             X           Y           Z
 ---------------------------------------------------------------------
      1          8           0        0.000000    0.000000    1.564218
      2          8           0        0.000000    0.000000    2.916598
      3          8           0        0.000000    0.000000   -2.916598
      4          8           0        0.000000    0.000000   -1.564218
 ---------------------------------------------------------------------

 SCF Done:  E(ROHF) =  -298.962563021     A.U. after   11 cycles
 E2 =    -0.1606556486D+01 EUMP2 =    -0.30056911950631D+03
 CCSD(T)
 CCSD(T)= -0.30022674702D+03

 Unable to determine electronic state:  partially filled degenerate orbitals.
 Alpha  occ. eigenvalues --  -20.49698 -20.49697 -20.46373 -20.46373  -1.29414
 Alpha  occ. eigenvalues --   -1.29334  -0.91378  -0.90906  -0.48285  -0.48151
 Alpha  occ. eigenvalues --   -0.44399  -0.43260  -0.39981  -0.39166  -0.26955
 Alpha  occ. eigenvalues --   -0.26798  -0.07043
 Alpha virt. eigenvalues --    0.05956   0.48345   0.54662   0.84282   0.91697
 Alpha virt. eigenvalues --    0.92789   0.93669   0.94073   0.94750   0.95838
 Alpha virt. eigenvalues --    1.00129   1.02249   1.05873   1.07991   1.12928

 Mulliken charges and spin densities:
               1          2
     1  O   -0.182555   0.300992
     2  O   -0.317445   0.199008
     3  O   -0.317445   0.199008
     4  O   -0.182555   0.300992
 Sum of Mulliken charges =  -1.00000   1.00000

 Dipole moment (field-independent basis, Debye):
    X=             -0.0000    Y=              0.0000    Z=              0.0000  Tot=              0.0000
 Quadrupole moment (field-independent basis, Debye-Ang):
   XX=            -22.4815   YY=            -23.0932   ZZ=            -53.4970
   XY=              0.0000   XZ=              0.0000   YZ=              0.0000

 8918\CCSD=-300.0921519\CCSD(T)=-300.226747\RMSD=6.525e-09\PG=D*H [C*(O
 Normal termination of Gaussian 16 at Sat Jan 14 22:08:42 2023.
