 Gaussian 16, Revision A.03,
 Gaussian 16:  ES64L-G16RevA.03 25-Dec-2016

 ---------------------------------------------------------------
 #p ROCCSD(T)/cc-pVTZ Guess=Read SCF=(VeryTight,CDIIS,VShift=10)
 ---------------------------------------------------------------

 --------
 O2_O2_88
 --------
 Symbolic Z-matrix:
 Charge = -1 Multiplicity = 2

                         Standard orientation:
 ---------------------------------------------------------------------
 Center     Atomic      Atomic             Coordinates (Angstroms)
 Number     Number       Type             X           Y           Z
 ---------------------------------------------------------------------
      1          8           0        0.000000    0.000000    1.415553
      2          8           0        0.000000    0.000000    2.767933
      3          8           0        0.000000    0.000000   -2.767933
      4          8           0        0.000000    0.000000   -1.415553
 ---------------------------------------------------------------------

 SCF Done:  E(ROHF) =  -298.973241027     A.U. after   11 cycles
 E2 =    -0.1534880317D+01 EUMP2 =    -0.30050812134307D+03
 CCSD(T)
 CCSD(T)= -0.30022785983D+03

 Unable to determine electronic state:  an orbital has unidentified symmetry.
 Alpha  occ. eigenvalues --  -20.49841 -20.49840 -20.45726 -20.45725  -1.29195
 Alpha  occ. eigenvalues --   -1.29029  -0.91271  -0.90372  -0.48108  -0.47834
 Alpha  occ. eigenvalues --   -0.44518  -0.42476  -0.39823  -0.38704  -0.26712
 Alpha  occ. eigenvalues --   -0.26348  -0.07375
 Alpha virt. eigenvalues --    0.07013   0.49137   0.55710   0.88452   0.90977
 Alpha virt. eigenvalues --    0.92412   0.93096   0.94741   0.94823   0.96484
 Alpha virt. eigenvalues --    0.99732   1.01790   1.08268   1.10408   1.13051

 Mulliken charges and spin densities:
               1          2
     1  O   -0.170222   0.309908
     2  O   -0.329778   0.190092
     3  O   -0.329778   0.190092
     4  O   -0.170222   0.309908
 Sum of Mulliken charges =  -1.00000   1.00000

 Dipole moment (field-independent basis, Debye):
    X=             -0.0000    Y=              0.0000    Z=              0.0000  Tot=              0.0000
 Quadrupole moment (field-independent basis, Debye-Ang):
   XX=            -22.5130   YY=            -23.1098   ZZ=            -50.6773
   XY=              0.0000   XZ=              0.0000   YZ=              0.0000

 36\CCSD=-300.0974978\CCSD(T)=-300.2278598\RMSD=8.477e-09\PG=D*H [C*(O1
 Normal termination of Gaussian 16 at Sat Jan 14 21:35:26 2023.
