 Gaussian 16, Revision A.03,
 Gaussian 16:  ES64L-G16RevA.03 25-Dec-2016

 ---------------------------------------------------------------
 #p ROCCSD(T)/cc-pVTZ Guess=Read SCF=(VeryTight,CDIIS,VShift=10)
 ---------------------------------------------------------------

 ---------
 O2_O2_174
 ---------
 Symbolic Z-matrix:
 Charge = -1 Multiplicity = 2

                         Standard orientation:
 ---------------------------------------------------------------------
 Center     Atomic      Atomic             Coordinates (Angstroms)
 Number     Number       Type             X           Y           Z
 ---------------------------------------------------------------------
      1          8           0        0.000000    0.000000    2.024372
      2          8           0        0.000000    0.000000    3.376752
      3          8           0        0.000000    0.000000   -3.376752
      4          8           0        0.000000    0.000000   -2.024372
 ---------------------------------------------------------------------

 SCF Done:  E(ROHF) =  -299.131775287     A.U. after    8 cycles
 E2 =    -0.1045582221D+01 EUMP2 =    -0.30017735750872D+03
 CCSD(T)
 CCSD(T)= -0.30018309990D+03

 Unable to determine electronic state:  an orbital has unidentified symmetry.
 Alpha  occ. eigenvalues --  -20.47938 -20.47937 -20.46716 -20.46716  -1.29334
 Alpha  occ. eigenvalues --   -1.29322  -0.91341  -0.91249  -0.46654  -0.46641
 Alpha  occ. eigenvalues --   -0.44116  -0.43937  -0.41550  -0.41175  -0.25478
 Alpha  occ. eigenvalues --   -0.25444  -0.07685
 Alpha virt. eigenvalues --    0.02595   0.49295   0.52325   0.86621   0.92733
 Alpha virt. eigenvalues --    0.93338   0.93473   0.93625   0.93763   0.95158
 Alpha virt. eigenvalues --    1.02380   1.02596   1.02789   1.03250   1.03444

 Mulliken charges and spin densities:
               1          2
     1  O   -0.210167   0.265324
     2  O   -0.289833   0.234676
     3  O   -0.289833   0.234676
     4  O   -0.210167   0.265324
 Sum of Mulliken charges =  -1.00000   1.00000

 Dipole moment (field-independent basis, Debye):
    X=             -0.0000    Y=             -0.0000    Z=              0.0000  Tot=              0.0000
 Quadrupole moment (field-independent basis, Debye-Ang):
   XX=            -21.4493   YY=            -23.7649   ZZ=            -63.3173
   XY=              0.0000   XZ=              0.0000   YZ=              0.0000

 1855\CCSD=-300.1284509\CCSD(T)=-300.1830999\RMSD=2.002e-09\PG=D*H [C*(
 Normal termination of Gaussian 16 at Sat Jan 14 23:38:47 2023.
