 Gaussian 16, Revision A.03,
 Gaussian 16:  ES64L-G16RevA.03 25-Dec-2016

 ---------------------------------------------------------------
 #p ROCCSD(T)/cc-pVTZ Guess=Read SCF=(VeryTight,CDIIS,VShift=10)
 ---------------------------------------------------------------

 ---------
 O2_O2_202
 ---------
 Symbolic Z-matrix:
 Charge = -1 Multiplicity = 2

                         Standard orientation:
 ---------------------------------------------------------------------
 Center     Atomic      Atomic             Coordinates (Angstroms)
 Number     Number       Type             X           Y           Z
 ---------------------------------------------------------------------
      1          8           0        0.000000    0.000000    2.222593
      2          8           0        0.000000    0.000000    3.574973
      3          8           0        0.000000    0.000000   -3.574973
      4          8           0        0.000000    0.000000   -2.222593
 ---------------------------------------------------------------------

 SCF Done:  E(ROHF) =  -299.131385182     A.U. after    8 cycles
 E2 =    -0.1046153199D+01 EUMP2 =    -0.30017753838072D+03
 CCSD(T)
 CCSD(T)= -0.30018263459D+03

 Unable to determine electronic state:  an orbital has unidentified symmetry.
 Alpha  occ. eigenvalues --  -20.48185 -20.48185 -20.47131 -20.47131  -1.29660
 Alpha  occ. eigenvalues --   -1.29653  -0.91664  -0.91608  -0.46978  -0.46973
 Alpha  occ. eigenvalues --   -0.44411  -0.44336  -0.41840  -0.41547  -0.25802
 Alpha  occ. eigenvalues --   -0.25790  -0.07631
 Alpha virt. eigenvalues --    0.01855   0.49797   0.51287   0.88682   0.91845
 Alpha virt. eigenvalues --    0.93116   0.93212   0.93254   0.93350   0.95622
 Alpha virt. eigenvalues --    0.98680   1.02325   1.02533   1.02615   1.02816

 Mulliken charges and spin densities:
               1          2
     1  O   -0.215303   0.263541
     2  O   -0.284697   0.236459
     3  O   -0.284697   0.236459
     4  O   -0.215303   0.263541
 Sum of Mulliken charges =  -1.00000   1.00000

 Dipole moment (field-independent basis, Debye):
    X=             -0.0000    Y=             -0.0000    Z=             -0.0000  Tot=              0.0000
 Quadrupole moment (field-independent basis, Debye-Ang):
   XX=            -21.4455   YY=            -23.7634   ZZ=            -68.4552
   XY=              0.0000   XZ=              0.0000   YZ=              0.0000

 366665\CCSD=-300.1279984\CCSD(T)=-300.1826346\RMSD=1.527e-09\PG=D*H [C
 Normal termination of Gaussian 16 at Sun Jan 15 00:16:01 2023.
