 Gaussian 16, Revision A.03,
 Gaussian 16:  ES64L-G16RevA.03 25-Dec-2016

 ---------------------------------------------------------------
 #p ROCCSD(T)/cc-pVTZ Guess=Read SCF=(VeryTight,CDIIS,VShift=10)
 ---------------------------------------------------------------

 --------
 O2_O2_35
 --------
 Symbolic Z-matrix:
 Charge = -1 Multiplicity = 2

                         Standard orientation:
 ---------------------------------------------------------------------
 Center     Atomic      Atomic             Coordinates (Angstroms)
 Number     Number       Type             X           Y           Z
 ---------------------------------------------------------------------
      1          8           0        0.000000    0.000000    1.040351
      2          8           0        0.000000    0.000000    2.392731
      3          8           0        0.000000    0.000000   -2.392731
      4          8           0        0.000000    0.000000   -1.040351
 ---------------------------------------------------------------------

 SCF Done:  E(ROHF) =  -299.014007396     A.U. after    8 cycles
 E2 =    -0.1344638566D+01 EUMP2 =    -0.30035864596186D+03
 CCSD(T)
 CCSD(T)= -0.30022991381D+03

 Unable to determine electronic state:  an orbital has unidentified symmetry.
 Alpha  occ. eigenvalues --  -20.50813 -20.50810 -20.43036 -20.43036  -1.29157
 Alpha  occ. eigenvalues --   -1.27879  -0.92624  -0.87558  -0.48386  -0.46692
 Alpha  occ. eigenvalues --   -0.46633  -0.40007  -0.37893  -0.36847  -0.26221
 Alpha  occ. eigenvalues --   -0.24420  -0.09251
 Alpha virt. eigenvalues --    0.11253   0.51371   0.59436   0.90193   0.91649
 Alpha virt. eigenvalues --    0.92893   0.94049   0.96528   0.98184   1.00590
 Alpha virt. eigenvalues --    1.02542   1.10743   1.12829   1.15272   1.15592

 Mulliken charges and spin densities:
               1          2
     1  O   -0.106540   0.343457
     2  O   -0.393460   0.156543
     3  O   -0.393460   0.156543
     4  O   -0.106540   0.343457
 Sum of Mulliken charges =  -1.00000   1.00000

 Dipole moment (field-independent basis, Debye):
    X=             -0.0000    Y=              0.0000    Z=              0.0000  Tot=              0.0000
 Quadrupole moment (field-independent basis, Debye-Ang):
   XX=            -22.6096   YY=            -23.1518   ZZ=            -45.2456
   XY=              0.0000   XZ=              0.0000   YZ=              0.0000

 216\CCSD=-300.1170358\CCSD(T)=-300.2299138\RMSD=9.350e-09\PG=D*H [C*(O
 Normal termination of Gaussian 16 at Sat Jan 14 20:15:48 2023.
