 Gaussian 16, Revision A.03,
 Gaussian 16:  ES64L-G16RevA.03 25-Dec-2016

 ---------------------------------------------------------------
 #p ROCCSD(T)/cc-pVTZ Guess=Read SCF=(VeryTight,CDIIS,VShift=10)
 ---------------------------------------------------------------

 ---------
 O2_O2_176
 ---------
 Symbolic Z-matrix:
 Charge = -1 Multiplicity = 2

                         Standard orientation:
 ---------------------------------------------------------------------
 Center     Atomic      Atomic             Coordinates (Angstroms)
 Number     Number       Type             X           Y           Z
 ---------------------------------------------------------------------
      1          8           0        0.000000    0.000000    2.038531
      2          8           0        0.000000    0.000000    3.390911
      3          8           0        0.000000    0.000000   -3.390911
      4          8           0        0.000000    0.000000   -2.038531
 ---------------------------------------------------------------------

 SCF Done:  E(ROHF) =  -299.131738373     A.U. after    8 cycles
 E2 =    -0.1045625024D+01 EUMP2 =    -0.30017736339699D+03
 CCSD(T)
 CCSD(T)= -0.30018305486D+03

 Unable to determine electronic state:  an orbital has unidentified symmetry.
 Alpha  occ. eigenvalues --  -20.47956 -20.47955 -20.46747 -20.46747  -1.29358
 Alpha  occ. eigenvalues --   -1.29347  -0.91365  -0.91277  -0.46679  -0.46666
 Alpha  occ. eigenvalues --   -0.44137  -0.43968  -0.41572  -0.41204  -0.25502
 Alpha  occ. eigenvalues --   -0.25470  -0.07680
 Alpha virt. eigenvalues --    0.02538   0.49341   0.52242   0.86803   0.92684
 Alpha virt. eigenvalues --    0.93325   0.93460   0.93592   0.93729   0.95188
 Alpha virt. eigenvalues --    1.02381   1.02384   1.02599   1.03193   1.03387

 Mulliken charges and spin densities:
               1          2
     1  O   -0.210570   0.265191
     2  O   -0.289430   0.234809
     3  O   -0.289430   0.234809
     4  O   -0.210570   0.265191
 Sum of Mulliken charges =  -1.00000   1.00000

 Dipole moment (field-independent basis, Debye):
    X=             -0.0000    Y=              0.0000    Z=              0.0000  Tot=              0.0000
 Quadrupole moment (field-independent basis, Debye-Ang):
   XX=            -21.4490   YY=            -23.7648   ZZ=            -63.6712
   XY=              0.0000   XZ=              0.0000   YZ=              0.0000

 371367\CCSD=-300.1284075\CCSD(T)=-300.1830549\RMSD=1.906e-09\PG=D*H [C
 Normal termination of Gaussian 16 at Sat Jan 14 23:41:25 2023.
