 Gaussian 16, Revision A.03,
 Gaussian 16:  ES64L-G16RevA.03 25-Dec-2016

 ---------------------------------------------------------------
 #p ROCCSD(T)/cc-pVTZ Guess=Read SCF=(VeryTight,CDIIS,VShift=10)
 ---------------------------------------------------------------

 ---------
 O2_O2_137
 ---------
 Symbolic Z-matrix:
 Charge = -1 Multiplicity = 2

                         Standard orientation:
 ---------------------------------------------------------------------
 Center     Atomic      Atomic             Coordinates (Angstroms)
 Number     Number       Type             X           Y           Z
 ---------------------------------------------------------------------
      1          8           0        0.000000    0.000000    1.762439
      2          8           0        0.000000    0.000000    3.114819
      3          8           0        0.000000    0.000000   -3.114819
      4          8           0        0.000000    0.000000   -1.762439
 ---------------------------------------------------------------------

 SCF Done:  E(ROHF) =  -299.132834966     A.U. after    8 cycles
 E2 =    -0.1044722446D+01 EUMP2 =    -0.30017755741198D+03
 CCSD(T)
 CCSD(T)= -0.30018443100D+03

 Unable to determine electronic state:  an orbital has unidentified symmetry.
 Alpha  occ. eigenvalues --  -20.47588 -20.47587 -20.46063 -20.46063  -1.28842
 Alpha  occ. eigenvalues --   -1.28810  -0.90878  -0.90661  -0.46175  -0.46124
 Alpha  occ. eigenvalues --   -0.43754  -0.43227  -0.41127  -0.40579  -0.25009
 Alpha  occ. eigenvalues --   -0.24888  -0.07823
 Alpha virt. eigenvalues --    0.03819   0.48539   0.54027   0.83812   0.93184
 Alpha virt. eigenvalues --    0.93431   0.93552   0.94407   0.94540   0.94850
 Alpha virt. eigenvalues --    1.01968   1.02208   1.04891   1.05058   1.12800

 Mulliken charges and spin densities:
               1          2
     1  O   -0.201423   0.267875
     2  O   -0.298577   0.232125
     3  O   -0.298577   0.232125
     4  O   -0.201423   0.267875
 Sum of Mulliken charges =  -1.00000   1.00000

 Dipole moment (field-independent basis, Debye):
    X=             -0.0000    Y=              0.0000    Z=              0.0000  Tot=              0.0000
 Quadrupole moment (field-independent basis, Debye-Ang):
   XX=            -21.4601   YY=            -23.7676   ZZ=            -57.1450
   XY=              0.0000   XZ=              0.0000   YZ=              0.0000

 5796\CCSD=-300.1297207\CCSD(T)=-300.184431\RMSD=6.356e-09\PG=D*H [C*(O
 Normal termination of Gaussian 16 at Sat Jan 14 22:48:24 2023.
