 Gaussian 16, Revision A.03,
 Gaussian 16:  ES64L-G16RevA.03 25-Dec-2016

 ---------------------------------------------------------------
 #p ROCCSD(T)/cc-pVTZ Guess=Read SCF=(VeryTight,CDIIS,VShift=10)
 ---------------------------------------------------------------

 ---------
 O2_O2_127
 ---------
 Symbolic Z-matrix:
 Charge = -1 Multiplicity = 2

                         Standard orientation:
 ---------------------------------------------------------------------
 Center     Atomic      Atomic             Coordinates (Angstroms)
 Number     Number       Type             X           Y           Z
 ---------------------------------------------------------------------
      1          8           0        0.000000    0.000000    1.691645
      2          8           0        0.000000    0.000000    3.044026
      3          8           0        0.000000    0.000000   -3.044026
      4          8           0        0.000000    0.000000   -1.691645
 ---------------------------------------------------------------------

 SCF Done:  E(ROHF) =  -299.133284475     A.U. after    8 cycles
 E2 =    -0.1044455708D+01 EUMP2 =    -0.30017774018289D+03
 CCSD(T)
 CCSD(T)= -0.30018500003D+03

 Unable to determine electronic state:  an orbital has unidentified symmetry.
 Alpha  occ. eigenvalues --  -20.47489 -20.47489 -20.45861 -20.45861  -1.28697
 Alpha  occ. eigenvalues --   -1.28653  -0.90753  -0.90469  -0.46036  -0.45964
 Alpha  occ. eigenvalues --   -0.43678  -0.42978  -0.41006  -0.40389  -0.24876
 Alpha  occ. eigenvalues --   -0.24711  -0.07882
 Alpha virt. eigenvalues --    0.04216   0.48525   0.54520   0.83756   0.93162
 Alpha virt. eigenvalues --    0.93374   0.93486   0.94672   0.94801   0.94840
 Alpha virt. eigenvalues --    1.01740   1.01988   1.05593   1.05747   1.13126

 Mulliken charges and spin densities:
               1          2
     1  O   -0.198517   0.268557
     2  O   -0.301483   0.231443
     3  O   -0.301483   0.231443
     4  O   -0.198517   0.268557
 Sum of Mulliken charges =  -1.00000   1.00000

 Dipole moment (field-independent basis, Debye):
    X=             -0.0000    Y=              0.0000    Z=              0.0000  Tot=              0.0000
 Quadrupole moment (field-independent basis, Debye-Ang):
   XX=            -21.4647   YY=            -23.7685   ZZ=            -55.6007
   XY=              0.0000   XZ=              0.0000   YZ=              0.0000

 391653\CCSD=-300.1302627\CCSD(T)=-300.185\RMSD=8.243e-09\PG=D*H [C*(O1
 Normal termination of Gaussian 16 at Sat Jan 14 22:34:59 2023.
