 Gaussian 16, Revision A.03,
 Gaussian 16:  ES64L-G16RevA.03 25-Dec-2016

 ---------------------------------------------------------------
 #p ROCCSD(T)/cc-pVTZ Guess=Read SCF=(VeryTight,CDIIS,VShift=10)
 ---------------------------------------------------------------

 ---------
 O2_O2_130
 ---------
 Symbolic Z-matrix:
 Charge = -1 Multiplicity = 2

                         Standard orientation:
 ---------------------------------------------------------------------
 Center     Atomic      Atomic             Coordinates (Angstroms)
 Number     Number       Type             X           Y           Z
 ---------------------------------------------------------------------
      1          8           0        0.000000    0.000000    1.712883
      2          8           0        0.000000    0.000000    3.065264
      3          8           0        0.000000    0.000000   -3.065264
      4          8           0        0.000000    0.000000   -1.712883
 ---------------------------------------------------------------------

 SCF Done:  E(ROHF) =  -299.133140469     A.U. after    8 cycles
 E2 =    -0.1044537926D+01 EUMP2 =    -0.30017767839583D+03
 CCSD(T)
 CCSD(T)= -0.30018481795D+03

 Unable to determine electronic state:  an orbital has unidentified symmetry.
 Alpha  occ. eigenvalues --  -20.47519 -20.47518 -20.45923 -20.45923  -1.28741
 Alpha  occ. eigenvalues --   -1.28701  -0.90790  -0.90528  -0.46078  -0.46013
 Alpha  occ. eigenvalues --   -0.43699  -0.43056  -0.41042  -0.40448  -0.24916
 Alpha  occ. eigenvalues --   -0.24766  -0.07863
 Alpha virt. eigenvalues --    0.04093   0.48515   0.54371   0.83721   0.93175
 Alpha virt. eigenvalues --    0.93396   0.93511   0.94591   0.94721   0.94840
 Alpha virt. eigenvalues --    1.01813   1.02059   1.05368   1.05527   1.13070

 Mulliken charges and spin densities:
               1          2
     1  O   -0.199421   0.268355
     2  O   -0.300579   0.231645
     3  O   -0.300579   0.231645
     4  O   -0.199421   0.268355
 Sum of Mulliken charges =  -1.00000   1.00000

 Dipole moment (field-independent basis, Debye):
    X=             -0.0000    Y=              0.0000    Z=              0.0000  Tot=              0.0000
 Quadrupole moment (field-independent basis, Debye-Ang):
   XX=            -21.4632   YY=            -23.7683   ZZ=            -56.0584
   XY=              0.0000   XZ=              0.0000   YZ=              0.0000

 389782\CCSD=-300.1300892\CCSD(T)=-300.184818\RMSD=7.632e-09\PG=D*H [C*
 Normal termination of Gaussian 16 at Sat Jan 14 22:39:01 2023.
