 Gaussian 16, Revision A.03,
 Gaussian 16:  ES64L-G16RevA.03 25-Dec-2016

 ---------------------------------------------------------------
 #p ROCCSD(T)/cc-pVTZ Guess=Read SCF=(VeryTight,CDIIS,VShift=10)
 ---------------------------------------------------------------

 --------
 O2_O2_66
 --------
 Symbolic Z-matrix:
 Charge = -1 Multiplicity = 2

                         Standard orientation:
 ---------------------------------------------------------------------
 Center     Atomic      Atomic             Coordinates (Angstroms)
 Number     Number       Type             X           Y           Z
 ---------------------------------------------------------------------
      1          8           0        0.000000    0.000000    1.259809
      2          8           0        0.000000    0.000000    2.612189
      3          8           0        0.000000    0.000000   -2.612189
      4          8           0        0.000000    0.000000   -1.259809
 ---------------------------------------------------------------------

 SCF Done:  E(ROHF) =  -298.988332699     A.U. after   12 cycles
 E2 =    -0.1456821628D+01 EUMP2 =    -0.30044515432724D+03
 CCSD(T)
 CCSD(T)= -0.30022984689D+03

 Unable to determine electronic state:  an orbital has unidentified symmetry.
 Alpha  occ. eigenvalues --  -20.50140 -20.50138 -20.44859 -20.44859  -1.29030
 Alpha  occ. eigenvalues --   -1.28656  -0.91389  -0.89571  -0.48025  -0.47441
 Alpha  occ. eigenvalues --   -0.44980  -0.41234  -0.39744  -0.38097  -0.26483
 Alpha  occ. eigenvalues --   -0.25739  -0.07919
 Alpha virt. eigenvalues --    0.08417   0.50137   0.56971   0.90184   0.92004
 Alpha virt. eigenvalues --    0.92519   0.94481   0.95456   0.96630   0.97170
 Alpha virt. eigenvalues --    0.99685   1.01671   1.11238   1.13078   1.13407

 Mulliken charges and spin densities:
               1          2
     1  O   -0.151460   0.321866
     2  O   -0.348540   0.178134
     3  O   -0.348540   0.178134
     4  O   -0.151460   0.321866
 Sum of Mulliken charges =  -1.00000   1.00000

 Dipole moment (field-independent basis, Debye):
    X=             -0.0000    Y=              0.0000    Z=              0.0000  Tot=              0.0000
 Quadrupole moment (field-independent basis, Debye-Ang):
   XX=            -22.5556   YY=            -23.1319   ZZ=            -48.0594
   XY=              0.0000   XZ=              0.0000   YZ=              0.0000

 20599\CCSD=-300.1053534\CCSD(T)=-300.2298469\RMSD=3.164e-10\PG=D*H [C*
 Normal termination of Gaussian 16 at Sat Jan 14 21:02:28 2023.
