 Gaussian 16, Revision A.03,
 Gaussian 16:  ES64L-G16RevA.03 25-Dec-2016

 ---------------------------------------------------------------
 #p ROCCSD(T)/cc-pVTZ Guess=Read SCF=(VeryTight,CDIIS,VShift=10)
 ---------------------------------------------------------------

 ---------
 O2_O2_118
 ---------
 Symbolic Z-matrix:
 Charge = -1 Multiplicity = 2

                         Standard orientation:
 ---------------------------------------------------------------------
 Center     Atomic      Atomic             Coordinates (Angstroms)
 Number     Number       Type             X           Y           Z
 ---------------------------------------------------------------------
      1          8           0        0.000000    0.000000    1.627932
      2          8           0        0.000000    0.000000    2.980312
      3          8           0        0.000000    0.000000   -2.980312
      4          8           0        0.000000    0.000000   -1.627932
 ---------------------------------------------------------------------

 SCF Done:  E(ROHF) =  -298.958906976     A.U. after   11 cycles
 E2 =    -0.1636371209D+01 EUMP2 =    -0.30059527818469D+03
 CCSD(T)
 CCSD(T)= -0.30022652595D+03

 Unable to determine electronic state:  partially filled degenerate orbitals.
 Alpha  occ. eigenvalues --  -20.49672 -20.49671 -20.46613 -20.46613  -1.29516
 Alpha  occ. eigenvalues --   -1.29457  -0.91456  -0.91093  -0.48375  -0.48277
 Alpha  occ. eigenvalues --   -0.44407  -0.43523  -0.40061  -0.39341  -0.27064
 Alpha  occ. eigenvalues --   -0.26966  -0.06939
 Alpha virt. eigenvalues --    0.05564   0.48141   0.54235   0.83418   0.91912
 Alpha virt. eigenvalues --    0.92895   0.93800   0.93840   0.94722   0.95573
 Alpha virt. eigenvalues --    1.00344   1.02483   1.05037   1.07148   1.12849

 Mulliken charges and spin densities:
               1          2
     1  O   -0.186720   0.297798
     2  O   -0.313280   0.202202
     3  O   -0.313280   0.202202
     4  O   -0.186720   0.297798
 Sum of Mulliken charges =  -1.00000   1.00000

 Dipole moment (field-independent basis, Debye):
    X=             -0.0000    Y=              0.0000    Z=             -0.0000  Tot=              0.0000
 Quadrupole moment (field-independent basis, Debye-Ang):
   XX=            -22.4709   YY=            -23.0875   ZZ=            -54.7865
   XY=              0.0000   XZ=              0.0000   YZ=              0.0000

 1115\CCSD=-300.090426\CCSD(T)=-300.226526\RMSD=5.671e-09\PG=D*H [C*(O1
 Normal termination of Gaussian 16 at Sat Jan 14 22:22:41 2023.
