 Gaussian 16, Revision A.03,
 Gaussian 16:  ES64L-G16RevA.03 25-Dec-2016

 ---------------------------------------------------------------
 #p ROCCSD(T)/cc-pVTZ Guess=Read SCF=(VeryTight,CDIIS,VShift=10)
 ---------------------------------------------------------------

 --------
 O2_O2_16
 --------
 Symbolic Z-matrix:
 Charge = -1 Multiplicity = 2

                         Standard orientation:
 ---------------------------------------------------------------------
 Center     Atomic      Atomic             Coordinates (Angstroms)
 Number     Number       Type             X           Y           Z
 ---------------------------------------------------------------------
      1          8           0        0.000000    0.000000    0.905844
      2          8           0        0.000000    0.000000    2.258224
      3          8           0        0.000000    0.000000   -2.258224
      4          8           0        0.000000    0.000000   -0.905844
 ---------------------------------------------------------------------

 SCF Done:  E(ROHF) =  -299.020756764     A.U. after    9 cycles
 E2 =    -0.1280173041D+01 EUMP2 =    -0.30030092980525D+03
 CCSD(T)
 CCSD(T)= -0.30021714403D+03

 Unable to determine electronic state:  an orbital has unidentified symmetry.
 Alpha  occ. eigenvalues --  -20.51346 -20.51342 -20.41264 -20.41264  -1.29960
 Alpha  occ. eigenvalues --   -1.27072  -0.94901  -0.85335  -0.49410  -0.48632
 Alpha  occ. eigenvalues --   -0.45817  -0.40800  -0.35667  -0.33787  -0.26063
 Alpha  occ. eigenvalues --   -0.23115  -0.10574
 Alpha virt. eigenvalues --    0.13806   0.51885   0.61942   0.91038   0.91490
 Alpha virt. eigenvalues --    0.93530   0.93892   0.97345   0.98957   1.01946
 Alpha virt. eigenvalues --    1.03957   1.11913   1.12384   1.17228   1.19521

 Mulliken charges and spin densities:
               1          2
     1  O   -0.062756   0.358352
     2  O   -0.437244   0.141648
     3  O   -0.437244   0.141648
     4  O   -0.062756   0.358352
 Sum of Mulliken charges =  -1.00000   1.00000

 Dipole moment (field-independent basis, Debye):
    X=             -0.0000    Y=              0.0000    Z=              0.0000  Tot=              0.0000
 Quadrupole moment (field-independent basis, Debye-Ang):
   XX=            -22.5954   YY=            -23.1200   ZZ=            -44.3490
   XY=              0.0000   XZ=              0.0000   YZ=              0.0000

 46195\CCSD=-300.1133159\CCSD(T)=-300.217144\RMSD=6.410e-09\PG=D*H [C*(
 Normal termination of Gaussian 16 at Sat Jan 14 19:47:43 2023.
