 Gaussian 16, Revision A.03,
 Gaussian 16:  ES64L-G16RevA.03 25-Dec-2016

 ---------------------------------------------------------------
 #p ROCCSD(T)/cc-pVTZ Guess=Read SCF=(VeryTight,CDIIS,VShift=10)
 ---------------------------------------------------------------

 ---------
 O2_O2_296
 ---------
 Symbolic Z-matrix:
 Charge = -1 Multiplicity = 2

                         Standard orientation:
 ---------------------------------------------------------------------
 Center     Atomic      Atomic             Coordinates (Angstroms)
 Number     Number       Type             X           Y           Z
 ---------------------------------------------------------------------
      1          8           0        0.000000    0.000000    2.888046
      2          8           0        0.000000    0.000000    4.240426
      3          8           0        0.000000    0.000000   -4.240426
      4          8           0        0.000000    0.000000   -2.888046
 ---------------------------------------------------------------------

 SCF Done:  E(ROHF) =  -299.130976758     A.U. after    8 cycles
 E2 =    -0.1047604481D+01 EUMP2 =    -0.30017858123912D+03
 CCSD(T)
 CCSD(T)= -0.30018218430D+03

 Unable to determine electronic state:  an orbital has unidentified symmetry.
 Alpha  occ. eigenvalues --  -20.48874 -20.48874 -20.48180 -20.48180  -1.30515
 Alpha  occ. eigenvalues --   -1.30513  -0.92526  -0.92504  -0.47832  -0.47831
 Alpha  occ. eigenvalues --   -0.45267  -0.45264  -0.42625  -0.42475  -0.26667
 Alpha  occ. eigenvalues --   -0.26666  -0.07562
 Alpha virt. eigenvalues --    0.00036   0.49630   0.49666   0.89613   0.89692
 Alpha virt. eigenvalues --    0.92326   0.92327   0.92463   0.92464   0.95727
 Alpha virt. eigenvalues --    0.95774   1.01596   1.01599   1.01803   1.01806

 Mulliken charges and spin densities:
               1          2
     1  O   -0.226977   0.259109
     2  O   -0.273023   0.240891
     3  O   -0.273023   0.240891
     4  O   -0.226977   0.259109
 Sum of Mulliken charges =  -1.00000   1.00000

 Dipole moment (field-independent basis, Debye):
    X=             -0.0000    Y=              0.0000    Z=             -0.0000  Tot=              0.0000
 Quadrupole moment (field-independent basis, Debye-Ang):
   XX=            -21.4412   YY=            -23.7604   ZZ=            -88.5876
   XY=              0.0000   XZ=              0.0000   YZ=              0.0000

 360617\CCSD=-300.1275375\CCSD(T)=-300.1821843\RMSD=1.028e-09\PG=D*H [C
 Normal termination of Gaussian 16 at Sun Jan 15 02:22:44 2023.
