 Gaussian 16, Revision A.03,
 Gaussian 16:  ES64L-G16RevA.03 25-Dec-2016

 ---------------------------------------------------------------
 #p ROCCSD(T)/cc-pVTZ Guess=Read SCF=(VeryTight,CDIIS,VShift=10)
 ---------------------------------------------------------------

 ---------
 O2_O2_183
 ---------
 Symbolic Z-matrix:
 Charge = -1 Multiplicity = 2

                         Standard orientation:
 ---------------------------------------------------------------------
 Center     Atomic      Atomic             Coordinates (Angstroms)
 Number     Number       Type             X           Y           Z
 ---------------------------------------------------------------------
      1          8           0        0.000000    0.000000    2.088086
      2          8           0        0.000000    0.000000    3.440466
      3          8           0        0.000000    0.000000   -3.440466
      4          8           0        0.000000    0.000000   -2.088086
 ---------------------------------------------------------------------

 SCF Done:  E(ROHF) =  -299.131621526     A.U. after    8 cycles
 E2 =    -0.1045772458D+01 EUMP2 =    -0.30017739398396D+03
 CCSD(T)
 CCSD(T)= -0.30018291355D+03

 Unable to determine electronic state:  an orbital has unidentified symmetry.
 Alpha  occ. eigenvalues --  -20.48019 -20.48019 -20.46856 -20.46856  -1.29443
 Alpha  occ. eigenvalues --   -1.29433  -0.91448  -0.91371  -0.46762  -0.46752
 Alpha  occ. eigenvalues --   -0.44211  -0.44075  -0.41646  -0.41301  -0.25585
 Alpha  occ. eigenvalues --   -0.25561  -0.07664
 Alpha virt. eigenvalues --    0.02343   0.49493   0.51960   0.87406   0.92491
 Alpha virt. eigenvalues --    0.93274   0.93410   0.93479   0.93617   0.95300
 Alpha virt. eigenvalues --    1.01105   1.02387   1.02599   1.03008   1.03205

 Mulliken charges and spin densities:
               1          2
     1  O   -0.211932   0.264731
     2  O   -0.288068   0.235269
     3  O   -0.288068   0.235269
     4  O   -0.211932   0.264731
 Sum of Mulliken charges =  -1.00000   1.00000

 Dipole moment (field-independent basis, Debye):
    X=             -0.0000    Y=              0.0000    Z=             -0.0000  Tot=              0.0000
 Quadrupole moment (field-independent basis, Debye-Ang):
   XX=            -21.4478   YY=            -23.7644   ZZ=            -64.9256
   XY=              0.0000   XZ=              0.0000   YZ=              0.0000

 9822\CCSD=-300.1282709\CCSD(T)=-300.1829135\RMSD=1.661e-09\PG=D*H [C*(
 Normal termination of Gaussian 16 at Sat Jan 14 23:50:28 2023.
