 Gaussian 16, Revision A.03,
 Gaussian 16:  ES64L-G16RevA.03 25-Dec-2016

 ---------------------------------------------------------------
 #p ROCCSD(T)/cc-pVTZ Guess=Read SCF=(VeryTight,CDIIS,VShift=10)
 ---------------------------------------------------------------

 ---------
 O2_O2_263
 ---------
 Symbolic Z-matrix:
 Charge = -1 Multiplicity = 2

                         Standard orientation:
 ---------------------------------------------------------------------
 Center     Atomic      Atomic             Coordinates (Angstroms)
 Number     Number       Type             X           Y           Z
 ---------------------------------------------------------------------
      1          8           0        0.000000    0.000000    2.654429
      2          8           0        0.000000    0.000000    4.006809
      3          8           0        0.000000    0.000000   -4.006809
      4          8           0        0.000000    0.000000   -2.654429
 ---------------------------------------------------------------------

 SCF Done:  E(ROHF) =  -299.131052991     A.U. after    8 cycles
 E2 =    -0.1047168928D+01 EUMP2 =    -0.30017822191874D+03
 CCSD(T)
 CCSD(T)= -0.30018226314D+03

 Unable to determine electronic state:  an orbital has unidentified symmetry.
 Alpha  occ. eigenvalues --  -20.48658 -20.48657 -20.47862 -20.47862  -1.30252
 Alpha  occ. eigenvalues --   -1.30249  -0.92260  -0.92232  -0.47568  -0.47568
 Alpha  occ. eigenvalues --   -0.44997  -0.44988  -0.42380  -0.42193  -0.26400
 Alpha  occ. eigenvalues --   -0.26399  -0.07576
 Alpha virt. eigenvalues --    0.00585   0.49849   0.50014   0.89760   0.90113
 Alpha virt. eigenvalues --    0.92582   0.92587   0.92719   0.92725   0.95932
 Alpha virt. eigenvalues --    0.96171   1.01856   1.01873   1.02063   1.02079

 Mulliken charges and spin densities:
               1          2
     1  O   -0.223639   0.260405
     2  O   -0.276361   0.239595
     3  O   -0.276361   0.239595
     4  O   -0.223639   0.260405
 Sum of Mulliken charges =  -1.00000   1.00000

 Dipole moment (field-independent basis, Debye):
    X=             -0.0000    Y=              0.0000    Z=             -0.0000  Tot=              0.0000
 Quadrupole moment (field-independent basis, Debye-Ang):
   XX=            -21.4420   YY=            -23.7612   ZZ=            -81.0144
   XY=              0.0000   XZ=              0.0000   YZ=              0.0000

 1881\CCSD=-300.1276228\CCSD(T)=-300.1822631\RMSD=1.284e-09\PG=D*H [C*(
 Normal termination of Gaussian 16 at Sun Jan 15 01:37:42 2023.
