 Gaussian 16, Revision A.03,
 Gaussian 16:  ES64L-G16RevA.03 25-Dec-2016

 ---------------------------------------------------------------
 #p ROCCSD(T)/cc-pVTZ Guess=Read SCF=(VeryTight,CDIIS,VShift=10)
 ---------------------------------------------------------------

 -------
 O2_O2_9
 -------
 Symbolic Z-matrix:
 Charge = -1 Multiplicity = 2

                         Standard orientation:
 ---------------------------------------------------------------------
 Center     Atomic      Atomic             Coordinates (Angstroms)
 Number     Number       Type             X           Y           Z
 ---------------------------------------------------------------------
      1          8           0        0.000000    0.000000    0.856289
      2          8           0        0.000000    0.000000    2.208669
      3          8           0        0.000000    0.000000   -2.208669
      4          8           0        0.000000    0.000000   -0.856289
 ---------------------------------------------------------------------

 SCF Done:  E(ROHF) =  -299.015955203     A.U. after   10 cycles
 E2 =    -0.1259536591D+01 EUMP2 =    -0.30027549179448D+03
 CCSD(T)
 CCSD(T)= -0.30020515985D+03

 Unable to determine electronic state:  an orbital has unidentified symmetry.
 Alpha  occ. eigenvalues --  -20.51597 -20.51592 -20.40407 -20.40407  -1.30656
 Alpha  occ. eigenvalues --   -1.26671  -0.96275  -0.84228  -0.50158  -0.49518
 Alpha  occ. eigenvalues --   -0.45420  -0.41399  -0.35113  -0.31529  -0.25982
 Alpha  occ. eigenvalues --   -0.22489  -0.11176
 Alpha virt. eigenvalues --    0.14960   0.51939   0.63267   0.91352   0.91464
 Alpha virt. eigenvalues --    0.93246   0.94211   0.97707   0.99304   1.02651
 Alpha virt. eigenvalues --    1.04687   1.11477   1.12137   1.17809   1.20136

 Mulliken charges and spin densities:
               1          2
     1  O   -0.041185   0.363648
     2  O   -0.458815   0.136352
     3  O   -0.458815   0.136352
     4  O   -0.041185   0.363648
 Sum of Mulliken charges =  -1.00000   1.00000

 Dipole moment (field-independent basis, Debye):
    X=             -0.0000    Y=             -0.0000    Z=             -0.0000  Tot=              0.0000
 Quadrupole moment (field-independent basis, Debye-Ang):
   XX=            -22.5685   YY=            -23.0889   ZZ=            -44.2623
   XY=              0.0000   XZ=              0.0000   YZ=              0.0000

 6136\CCSD=-300.1047917\CCSD(T)=-300.2051598\RMSD=1.708e-09\PG=D*H [C*(
 Normal termination of Gaussian 16 at Sat Jan 14 19:37:47 2023.
