 Gaussian 16, Revision A.03,
 Gaussian 16:  ES64L-G16RevA.03 25-Dec-2016

 ---------------------------------------------------------------
 #p ROCCSD(T)/cc-pVTZ Guess=Read SCF=(VeryTight,CDIIS,VShift=10)
 ---------------------------------------------------------------

 ---------
 O2_O2_101
 ---------
 Symbolic Z-matrix:
 Charge = -1 Multiplicity = 2

                         Standard orientation:
 ---------------------------------------------------------------------
 Center     Atomic      Atomic             Coordinates (Angstroms)
 Number     Number       Type             X           Y           Z
 ---------------------------------------------------------------------
      1          8           0        0.000000    0.000000    1.507584
      2          8           0        0.000000    0.000000    2.859964
      3          8           0        0.000000    0.000000   -2.859964
      4          8           0        0.000000    0.000000   -1.507584
 ---------------------------------------------------------------------

 SCF Done:  E(ROHF) =  -298.966246173     A.U. after   11 cycles
 E2 =    -0.1579601398D+01 EUMP2 =    -0.30054584757069D+03
 CCSD(T)
 CCSD(T)= -0.30022706680D+03

 Unable to determine electronic state:  an orbital has unidentified symmetry.
 Alpha  occ. eigenvalues --  -20.49738 -20.49737 -20.46142 -20.46142  -1.29326
 Alpha  occ. eigenvalues --   -1.29222  -0.91322  -0.90721  -0.48210  -0.48035
 Alpha  occ. eigenvalues --   -0.44418  -0.42994  -0.39915  -0.39000  -0.26860
 Alpha  occ. eigenvalues --   -0.26638  -0.07153
 Alpha virt. eigenvalues --    0.06332   0.48605   0.55050   0.85501   0.91453
 Alpha virt. eigenvalues --    0.92661   0.93474   0.94324   0.94778   0.96081
 Alpha virt. eigenvalues --    0.99952   1.02051   1.06715   1.08841   1.12985

 Mulliken charges and spin densities:
               1          2
     1  O   -0.178345   0.304130
     2  O   -0.321655   0.195870
     3  O   -0.321655   0.195870
     4  O   -0.178345   0.304130
 Sum of Mulliken charges =  -1.00000   1.00000

 Dipole moment (field-independent basis, Debye):
    X=             -0.0000    Y=              0.0000    Z=              0.0000  Tot=              0.0000
 Quadrupole moment (field-independent basis, Debye-Ang):
   XX=            -22.4923   YY=            -23.0989   ZZ=            -52.3904
   XY=              0.0000   XZ=              0.0000   YZ=              0.0000

 59153\CCSD=-300.0939537\CCSD(T)=-300.2270668\RMSD=7.322e-09\PG=D*H [C*
 Normal termination of Gaussian 16 at Sat Jan 14 21:55:08 2023.
