 Gaussian 16, Revision A.03,
 Gaussian 16:  ES64L-G16RevA.03 25-Dec-2016

 ---------------------------------------------------------------
 #p ROCCSD(T)/cc-pVTZ Guess=Read SCF=(VeryTight,CDIIS,VShift=10)
 ---------------------------------------------------------------

 ---------
 O2_O2_120
 ---------
 Symbolic Z-matrix:
 Charge = -1 Multiplicity = 2

                         Standard orientation:
 ---------------------------------------------------------------------
 Center     Atomic      Atomic             Coordinates (Angstroms)
 Number     Number       Type             X           Y           Z
 ---------------------------------------------------------------------
      1          8           0        0.000000    0.000000    1.642091
      2          8           0        0.000000    0.000000    2.994471
      3          8           0        0.000000    0.000000   -2.994471
      4          8           0        0.000000    0.000000   -1.642091
 ---------------------------------------------------------------------

 SCF Done:  E(ROHF) =  -299.133653326     A.U. after    8 cycles
 E2 =    -0.1044255807D+01 EUMP2 =    -0.30017790913316D+03
 CCSD(T)
 CCSD(T)= -0.30018546530D+03

 Unable to determine electronic state:  an orbital has unidentified symmetry.
 Alpha  occ. eigenvalues --  -20.47420 -20.47419 -20.45711 -20.45711  -1.28592
 Alpha  occ. eigenvalues --   -1.28538  -0.90668  -0.90321  -0.45936  -0.45845
 Alpha  occ. eigenvalues --   -0.43635  -0.42783  -0.40919  -0.40247  -0.24782
 Alpha  occ. eigenvalues --   -0.24577  -0.07931
 Alpha virt. eigenvalues --    0.04517   0.48598   0.54871   0.84026   0.93113
 Alpha virt. eigenvalues --    0.93304   0.93406   0.94846   0.94869   0.94995
 Alpha virt. eigenvalues --    1.01559   1.01813   1.06169   1.06313   1.13227

 Mulliken charges and spin densities:
               1          2
     1  O   -0.196288   0.269018
     2  O   -0.303712   0.230982
     3  O   -0.303712   0.230982
     4  O   -0.196288   0.269018
 Sum of Mulliken charges =  -1.00000   1.00000

 Dipole moment (field-independent basis, Debye):
    X=             -0.0000    Y=              0.0000    Z=             -0.0000  Tot=              0.0000
 Quadrupole moment (field-independent basis, Debye-Ang):
   XX=            -21.4685   YY=            -23.7692   ZZ=            -54.5516
   XY=              0.0000   XZ=              0.0000   YZ=              0.0000

 39643\CCSD=-300.1307068\CCSD(T)=-300.1854653\RMSD=9.911e-09\PG=D*H [C*
 Normal termination of Gaussian 16 at Sat Jan 14 22:25:29 2023.
