 Gaussian 16, Revision A.03,
 Gaussian 16:  ES64L-G16RevA.03 25-Dec-2016

 ---------------------------------------------------------------
 #p ROCCSD(T)/cc-pVTZ Guess=Read SCF=(VeryTight,CDIIS,VShift=10)
 ---------------------------------------------------------------

 ---------
 O2_O2_196
 ---------
 Symbolic Z-matrix:
 Charge = -1 Multiplicity = 2

                         Standard orientation:
 ---------------------------------------------------------------------
 Center     Atomic      Atomic             Coordinates (Angstroms)
 Number     Number       Type             X           Y           Z
 ---------------------------------------------------------------------
      1          8           0        0.000000    0.000000    2.180117
      2          8           0        0.000000    0.000000    3.532497
      3          8           0        0.000000    0.000000   -3.532497
      4          8           0        0.000000    0.000000   -2.180117
 ---------------------------------------------------------------------

 SCF Done:  E(ROHF) =  -299.131448776     A.U. after    8 cycles
 E2 =    -0.1046036161D+01 EUMP2 =    -0.30017748493746D+03
 CCSD(T)
 CCSD(T)= -0.30018270870D+03

 Unable to determine electronic state:  an orbital has unidentified symmetry.
 Alpha  occ. eigenvalues --  -20.48134 -20.48133 -20.47047 -20.47047  -1.29593
 Alpha  occ. eigenvalues --   -1.29586  -0.91597  -0.91536  -0.46911  -0.46905
 Alpha  occ. eigenvalues --   -0.44348  -0.44258  -0.41780  -0.41472  -0.25735
 Alpha  occ. eigenvalues --   -0.25720  -0.07640
 Alpha virt. eigenvalues --    0.02003   0.49720   0.51484   0.88343   0.92063
 Alpha virt. eigenvalues --    0.93168   0.93291   0.93305   0.93429   0.95522
 Alpha virt. eigenvalues --    0.99300   1.02353   1.02563   1.02725   1.02925

 Mulliken charges and spin densities:
               1          2
     1  O   -0.214287   0.263906
     2  O   -0.285713   0.236094
     3  O   -0.285713   0.236094
     4  O   -0.214287   0.263906
 Sum of Mulliken charges =  -1.00000   1.00000

 Dipole moment (field-independent basis, Debye):
    X=             -0.0000    Y=             -0.0000    Z=              0.0000  Tot=              0.0000
 Quadrupole moment (field-independent basis, Debye-Ang):
   XX=            -21.4461   YY=            -23.7637   ZZ=            -67.3210
   XY=              0.0000   XZ=              0.0000   YZ=              0.0000

 367521\CCSD=-300.1280712\CCSD(T)=-300.1827087\RMSD=1.515e-09\PG=D*H [C
 Normal termination of Gaussian 16 at Sun Jan 15 00:08:01 2023.
