 Gaussian 16, Revision A.03,
 Gaussian 16:  ES64L-G16RevA.03 25-Dec-2016

 ---------------------------------------------------------------
 #p ROCCSD(T)/cc-pVTZ Guess=Read SCF=(VeryTight,CDIIS,VShift=10)
 ---------------------------------------------------------------

 --------
 O2_O2_99
 --------
 Symbolic Z-matrix:
 Charge = -1 Multiplicity = 2

                         Standard orientation:
 ---------------------------------------------------------------------
 Center     Atomic      Atomic             Coordinates (Angstroms)
 Number     Number       Type             X           Y           Z
 ---------------------------------------------------------------------
      1          8           0        0.000000    0.000000    1.493425
      2          8           0        0.000000    0.000000    2.845806
      3          8           0        0.000000    0.000000   -2.845806
      4          8           0        0.000000    0.000000   -1.493425
 ---------------------------------------------------------------------

 SCF Done:  E(ROHF) =  -298.967237244     A.U. after   11 cycles
 E2 =    -0.1572795078D+01 EUMP2 =    -0.30054003232231D+03
 CCSD(T)
 CCSD(T)= -0.30022716635D+03

 Unable to determine electronic state:  an orbital has unidentified symmetry.
 Alpha  occ. eigenvalues --  -20.49750 -20.49749 -20.46082 -20.46081  -1.29305
 Alpha  occ. eigenvalues --   -1.29193  -0.91311  -0.90672  -0.48193  -0.48005
 Alpha  occ. eigenvalues --   -0.44427  -0.42922  -0.39899  -0.38957  -0.26837
 Alpha  occ. eigenvalues --   -0.26596  -0.07183
 Alpha virt. eigenvalues --    0.06431   0.48679   0.55149   0.85875   0.91386
 Alpha virt. eigenvalues --    0.92626   0.93420   0.94387   0.94786   0.96142
 Alpha virt. eigenvalues --    0.99911   1.02005   1.06940   1.09068   1.12997

 Mulliken charges and spin densities:
               1          2
     1  O   -0.177206   0.304962
     2  O   -0.322794   0.195038
     3  O   -0.322794   0.195038
     4  O   -0.177206   0.304962
 Sum of Mulliken charges =  -1.00000   1.00000

 Dipole moment (field-independent basis, Debye):
    X=             -0.0000    Y=              0.0000    Z=              0.0000  Tot=              0.0000
 Quadrupole moment (field-independent basis, Debye-Ang):
   XX=            -22.4953   YY=            -23.1005   ZZ=            -52.1198
   XY=              0.0000   XZ=              0.0000   YZ=              0.0000

 33773\CCSD=-300.0944473\CCSD(T)=-300.2271663\RMSD=7.513e-09\PG=D*H [C*
 Normal termination of Gaussian 16 at Sat Jan 14 21:52:04 2023.
