 Gaussian 16, Revision A.03,
 Gaussian 16:  ES64L-G16RevA.03 25-Dec-2016

 ---------------------------------------------------------------
 #p ROCCSD(T)/cc-pVTZ Guess=Read SCF=(VeryTight,CDIIS,VShift=10)
 ---------------------------------------------------------------

 --------
 O2_O2_59
 --------
 Symbolic Z-matrix:
 Charge = -1 Multiplicity = 2

                         Standard orientation:
 ---------------------------------------------------------------------
 Center     Atomic      Atomic             Coordinates (Angstroms)
 Number     Number       Type             X           Y           Z
 ---------------------------------------------------------------------
      1          8           0        0.000000    0.000000    1.210253
      2          8           0        0.000000    0.000000    2.562634
      3          8           0        0.000000    0.000000   -2.562634
      4          8           0        0.000000    0.000000   -1.210253
 ---------------------------------------------------------------------

 SCF Done:  E(ROHF) =  -298.993969624     A.U. after   12 cycles
 E2 =    -0.1431507035D+01 EUMP2 =    -0.30042547665893D+03
 CCSD(T)
 CCSD(T)= -0.30023048562D+03

 Unable to determine electronic state:  an orbital has unidentified symmetry.
 Alpha  occ. eigenvalues --  -20.50268 -20.50267 -20.44525 -20.44525  -1.29005
 Alpha  occ. eigenvalues --   -1.28516  -0.91518  -0.89233  -0.48039  -0.47293
 Alpha  occ. eigenvalues --   -0.45235  -0.40693  -0.39750  -0.37865  -0.26418
 Alpha  occ. eigenvalues --   -0.25501  -0.08151
 Alpha virt. eigenvalues --    0.08951   0.50441   0.57433   0.90024   0.91905
 Alpha virt. eigenvalues --    0.92439   0.94515   0.95687   0.97389   0.99742
 Alpha virt. eigenvalues --    0.99778   1.01746   1.12204   1.13057   1.14004

 Mulliken charges and spin densities:
               1          2
     1  O   -0.143599   0.326279
     2  O   -0.356401   0.173721
     3  O   -0.356401   0.173721
     4  O   -0.143599   0.326279
 Sum of Mulliken charges =  -1.00000   1.00000

 Dipole moment (field-independent basis, Debye):
    X=             -0.0000    Y=              0.0000    Z=              0.0000  Tot=              0.0000
 Quadrupole moment (field-independent basis, Debye-Ang):
   XX=            -22.5702   YY=            -23.1391   ZZ=            -47.3176
   XY=              0.0000   XZ=              0.0000   YZ=              0.0000

 12845\CCSD=-300.1082449\CCSD(T)=-300.2304856\RMSD=4.944e-10\PG=D*H [C*
 Normal termination of Gaussian 16 at Sat Jan 14 20:51:47 2023.
