 Gaussian 16, Revision A.03,
 Gaussian 16:  ES64L-G16RevA.03 25-Dec-2016

 ---------------------------------------------------------------
 #p ROCCSD(T)/cc-pVTZ Guess=Read SCF=(VeryTight,CDIIS,VShift=10)
 ---------------------------------------------------------------

 --------
 O2_O2_41
 --------
 Symbolic Z-matrix:
 Charge = -1 Multiplicity = 2

                         Standard orientation:
 ---------------------------------------------------------------------
 Center     Atomic      Atomic             Coordinates (Angstroms)
 Number     Number       Type             X           Y           Z
 ---------------------------------------------------------------------
      1          8           0        0.000000    0.000000    1.082827
      2          8           0        0.000000    0.000000    2.435207
      3          8           0        0.000000    0.000000   -2.435207
      4          8           0        0.000000    0.000000   -1.082827
 ---------------------------------------------------------------------

 SCF Done:  E(ROHF) =  -299.009273482     A.U. after   11 cycles
 E2 =    -0.1366174416D+01 EUMP2 =    -0.30037544789743D+03
 CCSD(T)
 CCSD(T)= -0.30023084002D+03

 Unable to determine electronic state:  an orbital has unidentified symmetry.
 Alpha  occ. eigenvalues --  -20.50664 -20.50662 -20.43470 -20.43470  -1.29068
 Alpha  occ. eigenvalues --   -1.28069  -0.92216  -0.88071  -0.48237  -0.46827
 Alpha  occ. eigenvalues --   -0.46230  -0.39895  -0.38773  -0.37141  -0.26267
 Alpha  occ. eigenvalues --   -0.24737  -0.08924
 Alpha virt. eigenvalues --    0.10597   0.51157   0.58853   0.90036   0.91708
 Alpha virt. eigenvalues --    0.92666   0.94196   0.96305   0.97974   1.00306
 Alpha virt. eigenvalues --    1.02254   1.08539   1.12913   1.14557   1.14669

 Mulliken charges and spin densities:
               1          2
     1  O   -0.117420   0.338901
     2  O   -0.382580   0.161099
     3  O   -0.382580   0.161099
     4  O   -0.117420   0.338901
 Sum of Mulliken charges =  -1.00000   1.00000

 Dipole moment (field-independent basis, Debye):
    X=             -0.0000    Y=             -0.0000    Z=              0.0000  Tot=              0.0000
 Quadrupole moment (field-independent basis, Debye-Ang):
   XX=            -22.6031   YY=            -23.1519   ZZ=            -45.6826
   XY=              0.0000   XZ=              0.0000   YZ=              0.0000

 99137\CCSD=-300.1153785\CCSD(T)=-300.23084\RMSD=9.932e-09\PG=D*H [C*(O
 Normal termination of Gaussian 16 at Sat Jan 14 20:24:56 2023.
