 Gaussian 16, Revision A.03,
 Gaussian 16:  ES64L-G16RevA.03 25-Dec-2016

 ---------------------------------------------------------------
 #p ROCCSD(T)/cc-pVTZ Guess=Read SCF=(VeryTight,CDIIS,VShift=10)
 ---------------------------------------------------------------

 ---------
 O2_O2_111
 ---------
 Symbolic Z-matrix:
 Charge = -1 Multiplicity = 2

                         Standard orientation:
 ---------------------------------------------------------------------
 Center     Atomic      Atomic             Coordinates (Angstroms)
 Number     Number       Type             X           Y           Z
 ---------------------------------------------------------------------
      1          8           0        0.000000    0.000000    1.578377
      2          8           0        0.000000    0.000000    2.930757
      3          8           0        0.000000    0.000000   -2.930757
      4          8           0        0.000000    0.000000   -1.578377
 ---------------------------------------------------------------------

 SCF Done:  E(ROHF) =  -298.961708327     A.U. after   11 cycles
 E2 =    -0.1613228327D+01 EUMP2 =    -0.30057493665459D+03
 CCSD(T)
 CCSD(T)= -0.30022668578D+03

 Unable to determine electronic state:  partially filled degenerate orbitals.
 Alpha  occ. eigenvalues --  -20.49690 -20.49689 -20.46428 -20.46428  -1.29436
 Alpha  occ. eigenvalues --   -1.29362  -0.91394  -0.90949  -0.48304  -0.48179
 Alpha  occ. eigenvalues --   -0.44398  -0.43322  -0.39998  -0.39206  -0.26980
 Alpha  occ. eigenvalues --   -0.26837  -0.07018
 Alpha virt. eigenvalues --    0.05866   0.48291   0.54567   0.84045   0.91750
 Alpha virt. eigenvalues --    0.92816   0.93711   0.94011   0.94743   0.95778
 Alpha virt. eigenvalues --    1.00176   1.02301   1.05677   1.07793   1.12912

 Mulliken charges and spin densities:
               1          2
     1  O   -0.183529   0.300253
     2  O   -0.316471   0.199747
     3  O   -0.316471   0.199747
     4  O   -0.183529   0.300253
 Sum of Mulliken charges =  -1.00000   1.00000

 Dipole moment (field-independent basis, Debye):
    X=             -0.0000    Y=              0.0000    Z=              0.0000  Tot=              0.0000
 Quadrupole moment (field-independent basis, Debye-Ang):
   XX=            -22.4790   YY=            -23.0918   ZZ=            -53.7796
   XY=              0.0000   XZ=              0.0000   YZ=              0.0000

 38787\CCSD=-300.0917423\CCSD(T)=-300.2266858\RMSD=6.326e-09\PG=D*H [C*
 Normal termination of Gaussian 16 at Sat Jan 14 22:11:48 2023.
