 Gaussian 16, Revision A.03,
 Gaussian 16:  ES64L-G16RevA.03 25-Dec-2016

 ---------------------------------------------------------------
 #p ROCCSD(T)/cc-pVTZ Guess=Read SCF=(VeryTight,CDIIS,VShift=10)
 ---------------------------------------------------------------

 ---------
 O2_O2_198
 ---------
 Symbolic Z-matrix:
 Charge = -1 Multiplicity = 2

                         Standard orientation:
 ---------------------------------------------------------------------
 Center     Atomic      Atomic             Coordinates (Angstroms)
 Number     Number       Type             X           Y           Z
 ---------------------------------------------------------------------
      1          8           0        0.000000    0.000000    2.194275
      2          8           0        0.000000    0.000000    3.546655
      3          8           0        0.000000    0.000000   -3.546655
      4          8           0        0.000000    0.000000   -2.194275
 ---------------------------------------------------------------------

 SCF Done:  E(ROHF) =  -299.131426571     A.U. after    8 cycles
 E2 =    -0.1046075512D+01 EUMP2 =    -0.30017750208208D+03
 CCSD(T)
 CCSD(T)= -0.30018268265D+03

 Unable to determine electronic state:  an orbital has unidentified symmetry.
 Alpha  occ. eigenvalues --  -20.48151 -20.48150 -20.47075 -20.47075  -1.29616
 Alpha  occ. eigenvalues --   -1.29608  -0.91619  -0.91560  -0.46933  -0.46928
 Alpha  occ. eigenvalues --   -0.44369  -0.44284  -0.41800  -0.41497  -0.25758
 Alpha  occ. eigenvalues --   -0.25743  -0.07637
 Alpha virt. eigenvalues --    0.01953   0.49747   0.51417   0.88463   0.91991
 Alpha virt. eigenvalues --    0.93151   0.93264   0.93288   0.93402   0.95556
 Alpha virt. eigenvalues --    0.99080   1.02344   1.02553   1.02687   1.02888

 Mulliken charges and spin densities:
               1          2
     1  O   -0.214630   0.263784
     2  O   -0.285370   0.236216
     3  O   -0.285370   0.236216
     4  O   -0.214630   0.263784
 Sum of Mulliken charges =  -1.00000   1.00000

 Dipole moment (field-independent basis, Debye):
    X=             -0.0000    Y=              0.0000    Z=              0.0000  Tot=              0.0000
 Quadrupole moment (field-independent basis, Debye-Ang):
   XX=            -21.4459   YY=            -23.7636   ZZ=            -67.6970
   XY=              0.0000   XZ=              0.0000   YZ=              0.0000

 7223\CCSD=-300.1280457\CCSD(T)=-300.1826826\RMSD=1.516e-09\PG=D*H [C*(
 Normal termination of Gaussian 16 at Sun Jan 15 00:10:43 2023.
