 Gaussian 16, Revision A.03,
 Gaussian 16:  ES64L-G16RevA.03 25-Dec-2016

 ---------------------------------------------------------------
 #p ROCCSD(T)/cc-pVTZ Guess=Read SCF=(VeryTight,CDIIS,VShift=10)
 ---------------------------------------------------------------

 ---------
 O2_O2_283
 ---------
 Symbolic Z-matrix:
 Charge = -1 Multiplicity = 2

                         Standard orientation:
 ---------------------------------------------------------------------
 Center     Atomic      Atomic             Coordinates (Angstroms)
 Number     Number       Type             X           Y           Z
 ---------------------------------------------------------------------
      1          8           0        0.000000    0.000000    2.796015
      2          8           0        0.000000    0.000000    4.148395
      3          8           0        0.000000    0.000000   -4.148395
      4          8           0        0.000000    0.000000   -2.796015
 ---------------------------------------------------------------------

 SCF Done:  E(ROHF) =  -299.131002844     A.U. after    8 cycles
 E2 =    -0.1047440814D+01 EUMP2 =    -0.30017844365773D+03
 CCSD(T)
 CCSD(T)= -0.30018221072D+03

 Unable to determine electronic state:  an orbital has unidentified symmetry.
 Alpha  occ. eigenvalues --  -20.48792 -20.48792 -20.48060 -20.48060  -1.30416
 Alpha  occ. eigenvalues --   -1.30413  -0.92425  -0.92401  -0.47732  -0.47732
 Alpha  occ. eigenvalues --   -0.45165  -0.45160  -0.42532  -0.42369  -0.26566
 Alpha  occ. eigenvalues --   -0.26565  -0.07567
 Alpha virt. eigenvalues --    0.00243   0.49722   0.49789   0.89688   0.89833
 Alpha virt. eigenvalues --    0.92423   0.92425   0.92560   0.92562   0.95818
 Alpha virt. eigenvalues --    0.95908   1.01696   1.01701   1.01902   1.01908

 Mulliken charges and spin densities:
               1          2
     1  O   -0.225741   0.259590
     2  O   -0.274259   0.240410
     3  O   -0.274259   0.240410
     4  O   -0.225741   0.259590
 Sum of Mulliken charges =  -1.00000   1.00000

 Dipole moment (field-independent basis, Debye):
    X=             -0.0000    Y=              0.0000    Z=             -0.0000  Tot=              0.0000
 Quadrupole moment (field-independent basis, Debye-Ang):
   XX=            -21.4415   YY=            -23.7607   ZZ=            -85.5392
   XY=              0.0000   XZ=              0.0000   YZ=              0.0000

 061\CCSD=-300.1275666\CCSD(T)=-300.1822107\RMSD=1.121e-09\PG=D*H [C*(O
 Normal termination of Gaussian 16 at Sun Jan 15 02:05:15 2023.
