 Gaussian 16, Revision A.03,
 Gaussian 16:  ES64L-G16RevA.03 25-Dec-2016

 ---------------------------------------------------------------
 #p ROCCSD(T)/cc-pVTZ Guess=Read SCF=(VeryTight,CDIIS,VShift=10)
 ---------------------------------------------------------------

 ---------
 O2_O2_218
 ---------
 Symbolic Z-matrix:
 Charge = -1 Multiplicity = 2

                         Standard orientation:
 ---------------------------------------------------------------------
 Center     Atomic      Atomic             Coordinates (Angstroms)
 Number     Number       Type             X           Y           Z
 ---------------------------------------------------------------------
      1          8           0        0.000000    0.000000    2.335861
      2          8           0        0.000000    0.000000    3.688241
      3          8           0        0.000000    0.000000   -3.688241
      4          8           0        0.000000    0.000000   -2.335861
 ---------------------------------------------------------------------

 SCF Done:  E(ROHF) =  -299.131253434     A.U. after    8 cycles
 E2 =    -0.1046450037D+01 EUMP2 =    -0.30017770347102D+03
 CCSD(T)
 CCSD(T)= -0.30018248382D+03

 Unable to determine electronic state:  an orbital has unidentified symmetry.
 Alpha  occ. eigenvalues --  -20.48318 -20.48318 -20.47344 -20.47344  -1.29830
 Alpha  occ. eigenvalues --   -1.29825  -0.91834  -0.91790  -0.47147  -0.47144
 Alpha  occ. eigenvalues --   -0.44574  -0.44531  -0.41994  -0.41735  -0.25973
 Alpha  occ. eigenvalues --   -0.25967  -0.07611
 Alpha virt. eigenvalues --    0.01482   0.49923   0.50832   0.89313   0.91263
 Alpha virt. eigenvalues --    0.92974   0.93022   0.93111   0.93159   0.95839
 Alpha virt. eigenvalues --    0.97516   1.02222   1.02367   1.02429   1.02571

 Mulliken charges and spin densities:
               1          2
     1  O   -0.217820   0.262616
     2  O   -0.282180   0.237384
     3  O   -0.282180   0.237384
     4  O   -0.217820   0.262616
 Sum of Mulliken charges =  -1.00000   1.00000

 Dipole moment (field-independent basis, Debye):
    X=             -0.0000    Y=              0.0000    Z=             -0.0000  Tot=              0.0000
 Quadrupole moment (field-independent basis, Debye-Ang):
   XX=            -21.4441   YY=            -23.7627   ZZ=            -71.5684
   XY=              0.0000   XZ=              0.0000   YZ=              0.0000

 364853\CCSD=-300.1278487\CCSD(T)=-300.1824838\RMSD=1.573e-09\PG=D*H [C
 Normal termination of Gaussian 16 at Sun Jan 15 00:36:59 2023.
