 Gaussian 16, Revision A.03,
 Gaussian 16:  ES64L-G16RevA.03 25-Dec-2016

 ---------------------------------------------------------------
 #p ROCCSD(T)/cc-pVTZ Guess=Read SCF=(VeryTight,CDIIS,VShift=10)
 ---------------------------------------------------------------

 ---------
 O2_O2_228
 ---------
 Symbolic Z-matrix:
 Charge = -1 Multiplicity = 2

                         Standard orientation:
 ---------------------------------------------------------------------
 Center     Atomic      Atomic             Coordinates (Angstroms)
 Number     Number       Type             X           Y           Z
 ---------------------------------------------------------------------
      1          8           0        0.000000    0.000000    2.406654
      2          8           0        0.000000    0.000000    3.759034
      3          8           0        0.000000    0.000000   -3.759034
      4          8           0        0.000000    0.000000   -2.406654
 ---------------------------------------------------------------------

 SCF Done:  E(ROHF) =  -299.131192292     A.U. after    8 cycles
 E2 =    -0.1046624148D+01 EUMP2 =    -0.30017781644048D+03
 CCSD(T)
 CCSD(T)= -0.30018241522D+03

 Unable to determine electronic state:  an orbital has unidentified symmetry.
 Alpha  occ. eigenvalues --  -20.48398 -20.48398 -20.47469 -20.47469  -1.29931
 Alpha  occ. eigenvalues --   -1.29926  -0.91936  -0.91896  -0.47247  -0.47246
 Alpha  occ. eigenvalues --   -0.44674  -0.44643  -0.42085  -0.41846  -0.26075
 Alpha  occ. eigenvalues --   -0.26071  -0.07601
 Alpha virt. eigenvalues --    0.01265   0.49951   0.50597   0.89542   0.90932
 Alpha virt. eigenvalues --    0.92884   0.92914   0.93021   0.93052   0.95924
 Alpha virt. eigenvalues --    0.97047   1.02145   1.02238   1.02352   1.02442

 Mulliken charges and spin densities:
               1          2
     1  O   -0.219262   0.262076
     2  O   -0.280738   0.237924
     3  O   -0.280738   0.237924
     4  O   -0.219262   0.262076
 Sum of Mulliken charges =  -1.00000   1.00000

 Dipole moment (field-independent basis, Debye):
    X=             -0.0000    Y=             -0.0000    Z=              0.0000  Tot=              0.0000
 Quadrupole moment (field-independent basis, Debye-Ang):
   XX=            -21.4435   YY=            -23.7623   ZZ=            -73.5795
   XY=              0.0000   XZ=              0.0000   YZ=              0.0000

 363985\CCSD=-300.1277797\CCSD(T)=-300.1824152\RMSD=1.552e-09\PG=D*H [C
 Normal termination of Gaussian 16 at Sun Jan 15 00:50:13 2023.
