 Gaussian 16, Revision A.03,
 Gaussian 16:  ES64L-G16RevA.03 25-Dec-2016

 ---------------------------------------------------------------
 #p ROCCSD(T)/cc-pVTZ Guess=Read SCF=(VeryTight,CDIIS,VShift=10)
 ---------------------------------------------------------------

 ---------
 O2_O2_163
 ---------
 Symbolic Z-matrix:
 Charge = -1 Multiplicity = 2

                         Standard orientation:
 ---------------------------------------------------------------------
 Center     Atomic      Atomic             Coordinates (Angstroms)
 Number     Number       Type             X           Y           Z
 ---------------------------------------------------------------------
      1          8           0        0.000000    0.000000    1.946500
      2          8           0        0.000000    0.000000    3.298880
      3          8           0        0.000000    0.000000   -3.298880
      4          8           0        0.000000    0.000000   -1.946500
 ---------------------------------------------------------------------

 SCF Done:  E(ROHF) =  -299.132010022     A.U. after    8 cycles
 E2 =    -0.1045341263D+01 EUMP2 =    -0.30017735128525D+03
 CCSD(T)
 CCSD(T)= -0.30018338969D+03

 Unable to determine electronic state:  an orbital has unidentified symmetry.
 Alpha  occ. eigenvalues --  -20.47836 -20.47836 -20.46535 -20.46535  -1.29195
 Alpha  occ. eigenvalues --   -1.29179  -0.91206  -0.91091  -0.46518  -0.46498
 Alpha  occ. eigenvalues --   -0.44002  -0.43752  -0.41429  -0.41012  -0.25343
 Alpha  occ. eigenvalues --   -0.25292  -0.07716
 Alpha virt. eigenvalues --    0.02925   0.49027   0.52804   0.85596   0.92958
 Alpha virt. eigenvalues --    0.93401   0.93534   0.93826   0.93962   0.95017
 Alpha virt. eigenvalues --    1.02329   1.02549   1.03613   1.03802   1.05392

 Mulliken charges and spin densities:
               1          2
     1  O   -0.207838   0.266070
     2  O   -0.292162   0.233930
     3  O   -0.292162   0.233930
     4  O   -0.207838   0.266070
 Sum of Mulliken charges =  -1.00000   1.00000

 Dipole moment (field-independent basis, Debye):
    X=             -0.0000    Y=             -0.0000    Z=              0.0000  Tot=              0.0000
 Quadrupole moment (field-independent basis, Debye-Ang):
   XX=            -21.4517   YY=            -23.7656   ZZ=            -61.4079
   XY=              0.0000   XZ=              0.0000   YZ=              0.0000

 \CCSD=-300.1287288\CCSD(T)=-300.1833897\RMSD=2.781e-09\PG=D*H [C*(O1O1
 Normal termination of Gaussian 16 at Sat Jan 14 23:24:06 2023.
