 Gaussian 16, Revision A.03,
 Gaussian 16:  ES64L-G16RevA.03 25-Dec-2016

 ---------------------------------------------------------------
 #p ROCCSD(T)/cc-pVTZ Guess=Read SCF=(VeryTight,CDIIS,VShift=10)
 ---------------------------------------------------------------

 ---------
 O2_O2_277
 ---------
 Symbolic Z-matrix:
 Charge = -1 Multiplicity = 2

                         Standard orientation:
 ---------------------------------------------------------------------
 Center     Atomic      Atomic             Coordinates (Angstroms)
 Number     Number       Type             X           Y           Z
 ---------------------------------------------------------------------
      1          8           0        0.000000    0.000000    2.753539
      2          8           0        0.000000    0.000000    4.105919
      3          8           0        0.000000    0.000000   -4.105919
      4          8           0        0.000000    0.000000   -2.753539
 ---------------------------------------------------------------------

 SCF Done:  E(ROHF) =  -299.131016440     A.U. after    8 cycles
 E2 =    -0.1047361921D+01 EUMP2 =    -0.30017837836113D+03
 CCSD(T)
 CCSD(T)= -0.30018222474D+03

 Unable to determine electronic state:  an orbital has unidentified symmetry.
 Alpha  occ. eigenvalues --  -20.48753 -20.48752 -20.48003 -20.48003  -1.30368
 Alpha  occ. eigenvalues --   -1.30365  -0.92377  -0.92352  -0.47684  -0.47684
 Alpha  occ. eigenvalues --   -0.45116  -0.45110  -0.42488  -0.42318  -0.26517
 Alpha  occ. eigenvalues --   -0.26517  -0.07569
 Alpha virt. eigenvalues --    0.00342   0.49762   0.49851   0.89717   0.89907
 Alpha virt. eigenvalues --    0.92469   0.92472   0.92607   0.92609   0.95856
 Alpha virt. eigenvalues --    0.95978   1.01743   1.01751   1.01950   1.01957

 Mulliken charges and spin densities:
               1          2
     1  O   -0.225137   0.259825
     2  O   -0.274863   0.240175
     3  O   -0.274863   0.240175
     4  O   -0.225137   0.259825
 Sum of Mulliken charges =  -1.00000   1.00000

 Dipole moment (field-independent basis, Debye):
    X=             -0.0000    Y=             -0.0000    Z=             -0.0000  Tot=              0.0000
 Quadrupole moment (field-independent basis, Debye-Ang):
   XX=            -21.4416   YY=            -23.7608   ZZ=            -84.1607
   XY=              0.0000   XZ=              0.0000   YZ=              0.0000

 361287\CCSD=-300.1275818\CCSD(T)=-300.1822247\RMSD=1.167e-09\PG=D*H [C
 Normal termination of Gaussian 16 at Sun Jan 15 01:56:26 2023.
