 Gaussian 16, Revision A.03,
 Gaussian 16:  ES64L-G16RevA.03 25-Dec-2016

 ---------------------------------------------------------------
 #p ROCCSD(T)/cc-pVTZ Guess=Read SCF=(VeryTight,CDIIS,VShift=10)
 ---------------------------------------------------------------

 ---------
 O2_O2_142
 ---------
 Symbolic Z-matrix:
 Charge = -1 Multiplicity = 2

                         Standard orientation:
 ---------------------------------------------------------------------
 Center     Atomic      Atomic             Coordinates (Angstroms)
 Number     Number       Type             X           Y           Z
 ---------------------------------------------------------------------
      1          8           0        0.000000    0.000000    1.797835
      2          8           0        0.000000    0.000000    3.150215
      3          8           0        0.000000    0.000000   -3.150215
      4          8           0        0.000000    0.000000   -1.797835
 ---------------------------------------------------------------------

 SCF Done:  E(ROHF) =  -299.132640980     A.U. after    8 cycles
 E2 =    -0.1044848649D+01 EUMP2 =    -0.30017748962909D+03
 CCSD(T)
 CCSD(T)= -0.30018418506D+03

 Unable to determine electronic state:  an orbital has unidentified symmetry.
 Alpha  occ. eigenvalues --  -20.47636 -20.47636 -20.46160 -20.46159  -1.28913
 Alpha  occ. eigenvalues --   -1.28885  -0.90942  -0.90751  -0.46243  -0.46200
 Alpha  occ. eigenvalues --   -0.43797  -0.43340  -0.41187  -0.40668  -0.25074
 Alpha  occ. eigenvalues --   -0.24972  -0.07798
 Alpha virt. eigenvalues --    0.03632   0.48592   0.53785   0.84006   0.93172
 Alpha virt. eigenvalues --    0.93442   0.93567   0.94283   0.94417   0.94864
 Alpha virt. eigenvalues --    1.02065   1.02300   1.04589   1.04762   1.11899

 Mulliken charges and spin densities:
               1          2
     1  O   -0.202772   0.267528
     2  O   -0.297228   0.232472
     3  O   -0.297228   0.232472
     4  O   -0.202772   0.267528
 Sum of Mulliken charges =  -1.00000   1.00000

 Dipole moment (field-independent basis, Debye):
    X=             -0.0000    Y=              0.0000    Z=              0.0000  Tot=              0.0000
 Quadrupole moment (field-independent basis, Debye-Ang):
   XX=            -21.4581   YY=            -23.7672   ZZ=            -57.9371
   XY=              0.0000   XZ=              0.0000   YZ=              0.0000

 55\CCSD=-300.1294867\CCSD(T)=-300.1841851\RMSD=5.532e-09\PG=D*H [C*(O1
 Normal termination of Gaussian 16 at Sat Jan 14 22:55:11 2023.
