 Gaussian 16, Revision A.03,
 Gaussian 16:  ES64L-G16RevA.03 25-Dec-2016

 ---------------------------------------------------------------
 #p ROCCSD(T)/cc-pVTZ Guess=Read SCF=(VeryTight,CDIIS,VShift=10)
 ---------------------------------------------------------------

 --------
 O2_O2_60
 --------
 Symbolic Z-matrix:
 Charge = -1 Multiplicity = 2

                         Standard orientation:
 ---------------------------------------------------------------------
 Center     Atomic      Atomic             Coordinates (Angstroms)
 Number     Number       Type             X           Y           Z
 ---------------------------------------------------------------------
      1          8           0        0.000000    0.000000    1.217333
      2          8           0        0.000000    0.000000    2.569713
      3          8           0        0.000000    0.000000   -2.569713
      4          8           0        0.000000    0.000000   -1.217333
 ---------------------------------------------------------------------

 SCF Done:  E(ROHF) =  -298.993144072     A.U. after   12 cycles
 E2 =    -0.1435132603D+01 EUMP2 =    -0.30042827667475D+03
 CCSD(T)
 CCSD(T)= -0.30023040108D+03

 Unable to determine electronic state:  an orbital has unidentified symmetry.
 Alpha  occ. eigenvalues --  -20.50249 -20.50247 -20.44575 -20.44575  -1.29008
 Alpha  occ. eigenvalues --   -1.28537  -0.91496  -0.89285  -0.48035  -0.47315
 Alpha  occ. eigenvalues --   -0.45194  -0.40776  -0.39748  -0.37899  -0.26427
 Alpha  occ. eigenvalues --   -0.25536  -0.08115
 Alpha virt. eigenvalues --    0.08872   0.50398   0.57365   0.90042   0.91918
 Alpha virt. eigenvalues --    0.92445   0.94522   0.95654   0.97358   0.99271
 Alpha virt. eigenvalues --    0.99761   1.01732   1.12067   1.13061   1.13987

 Mulliken charges and spin densities:
               1          2
     1  O   -0.144793   0.325630
     2  O   -0.355207   0.174370
     3  O   -0.355207   0.174370
     4  O   -0.144793   0.325630
 Sum of Mulliken charges =  -1.00000   1.00000

 Dipole moment (field-independent basis, Debye):
    X=             -0.0000    Y=              0.0000    Z=              0.0000  Tot=              0.0000
 Quadrupole moment (field-independent basis, Debye-Ang):
   XX=            -22.5681   YY=            -23.1381   ZZ=            -47.4204
   XY=              0.0000   XZ=              0.0000   YZ=              0.0000

 17664\CCSD=-300.1078259\CCSD(T)=-300.2304011\RMSD=4.534e-10\PG=D*H [C*
 Normal termination of Gaussian 16 at Sat Jan 14 20:53:14 2023.
