 Gaussian 16, Revision A.03,
 Gaussian 16:  ES64L-G16RevA.03 25-Dec-2016

 ---------------------------------------------------------------
 #p ROCCSD(T)/cc-pVTZ Guess=Read SCF=(VeryTight,CDIIS,VShift=10)
 ---------------------------------------------------------------

 ---------
 O2_O2_256
 ---------
 Symbolic Z-matrix:
 Charge = -1 Multiplicity = 2

                         Standard orientation:
 ---------------------------------------------------------------------
 Center     Atomic      Atomic             Coordinates (Angstroms)
 Number     Number       Type             X           Y           Z
 ---------------------------------------------------------------------
      1          8           0        0.000000    0.000000    2.604874
      2          8           0        0.000000    0.000000    3.957254
      3          8           0        0.000000    0.000000   -3.957254
      4          8           0        0.000000    0.000000   -2.604874
 ---------------------------------------------------------------------

 SCF Done:  E(ROHF) =  -299.131074391     A.U. after    8 cycles
 E2 =    -0.1047067438D+01 EUMP2 =    -0.30017814182907D+03
 CCSD(T)
 CCSD(T)= -0.30018228599D+03

 Unable to determine electronic state:  an orbital has unidentified symmetry.
 Alpha  occ. eigenvalues --  -20.48608 -20.48608 -20.47789 -20.47789  -1.30191
 Alpha  occ. eigenvalues --   -1.30188  -0.92199  -0.92169  -0.47508  -0.47507
 Alpha  occ. eigenvalues --   -0.44936  -0.44924  -0.42324  -0.42128  -0.26338
 Alpha  occ. eigenvalues --   -0.26337  -0.07580
 Alpha virt. eigenvalues --    0.00712   0.49886   0.50107   0.89764   0.90238
 Alpha virt. eigenvalues --    0.92640   0.92648   0.92777   0.92785   0.95958
 Alpha virt. eigenvalues --    0.96290   1.01914   1.01938   1.02121   1.02144

 Mulliken charges and spin densities:
               1          2
     1  O   -0.222839   0.260713
     2  O   -0.277161   0.239287
     3  O   -0.277161   0.239287
     4  O   -0.222839   0.260713
 Sum of Mulliken charges =  -1.00000   1.00000

 Dipole moment (field-independent basis, Debye):
    X=             -0.0000    Y=              0.0000    Z=              0.0000  Tot=              0.0000
 Quadrupole moment (field-independent basis, Debye-Ang):
   XX=            -21.4423   YY=            -23.7614   ZZ=            -79.4782
   XY=              0.0000   XZ=              0.0000   YZ=              0.0000

 362219\CCSD=-300.1276468\CCSD(T)=-300.182286\RMSD=1.345e-09\PG=D*H [C*
 Normal termination of Gaussian 16 at Sun Jan 15 01:28:23 2023.
