 Gaussian 16, Revision A.03,
 Gaussian 16:  ES64L-G16RevA.03 25-Dec-2016

 ---------------------------------------------------------------
 #p ROCCSD(T)/cc-pVTZ Guess=Read SCF=(VeryTight,CDIIS,VShift=10)
 ---------------------------------------------------------------

 ---------
 O2_O2_214
 ---------
 Symbolic Z-matrix:
 Charge = -1 Multiplicity = 2

                         Standard orientation:
 ---------------------------------------------------------------------
 Center     Atomic      Atomic             Coordinates (Angstroms)
 Number     Number       Type             X           Y           Z
 ---------------------------------------------------------------------
      1          8           0        0.000000    0.000000    2.307544
      2          8           0        0.000000    0.000000    3.659924
      3          8           0        0.000000    0.000000   -3.659924
      4          8           0        0.000000    0.000000   -2.307544
 ---------------------------------------------------------------------

 SCF Done:  E(ROHF) =  -299.131281959     A.U. after    8 cycles
 E2 =    -0.1046377939D+01 EUMP2 =    -0.30017765989735D+03
 CCSD(T)
 CCSD(T)= -0.30018251613D+03

 Unable to determine electronic state:  an orbital has unidentified symmetry.
 Alpha  occ. eigenvalues --  -20.48286 -20.48285 -20.47292 -20.47292  -1.29789
 Alpha  occ. eigenvalues --   -1.29783  -0.91793  -0.91746  -0.47106  -0.47103
 Alpha  occ. eigenvalues --   -0.44534  -0.44484  -0.41956  -0.41690  -0.25931
 Alpha  occ. eigenvalues --   -0.25924  -0.07616
 Alpha virt. eigenvalues --    0.01572   0.49902   0.50936   0.89189   0.91404
 Alpha virt. eigenvalues --    0.93010   0.93067   0.93147   0.93205   0.95793
 Alpha virt. eigenvalues --    0.97752   1.02250   1.02424   1.02457   1.02627

 Mulliken charges and spin densities:
               1          2
     1  O   -0.217215   0.262841
     2  O   -0.282785   0.237159
     3  O   -0.282785   0.237159
     4  O   -0.217215   0.262841
 Sum of Mulliken charges =  -1.00000   1.00000

 Dipole moment (field-independent basis, Debye):
    X=             -0.0000    Y=             -0.0000    Z=             -0.0000  Tot=              0.0000
 Quadrupole moment (field-independent basis, Debye-Ang):
   XX=            -21.4444   YY=            -23.7628   ZZ=            -70.7781
   XY=              0.0000   XZ=              0.0000   YZ=              0.0000

 5251\CCSD=-300.127881\CCSD(T)=-300.1825161\RMSD=1.569e-09\PG=D*H [C*(O
 Normal termination of Gaussian 16 at Sun Jan 15 00:31:46 2023.
