 Gaussian 16, Revision A.03,
 Gaussian 16:  ES64L-G16RevA.03 25-Dec-2016

 ---------------------------------------------------------------
 #p ROCCSD(T)/cc-pVTZ Guess=Read SCF=(VeryTight,CDIIS,VShift=10)
 ---------------------------------------------------------------

 --------
 O2_O2_62
 --------
 Symbolic Z-matrix:
 Charge = -1 Multiplicity = 2

                         Standard orientation:
 ---------------------------------------------------------------------
 Center     Atomic      Atomic             Coordinates (Angstroms)
 Number     Number       Type             X           Y           Z
 ---------------------------------------------------------------------
      1          8           0        0.000000    0.000000    1.231492
      2          8           0        0.000000    0.000000    2.583872
      3          8           0        0.000000    0.000000   -2.583872
      4          8           0        0.000000    0.000000   -1.231492
 ---------------------------------------------------------------------

 SCF Done:  E(ROHF) =  -298.991512086     A.U. after   12 cycles
 E2 =    -0.1442375356D+01 EUMP2 =    -0.30043388744228D+03
 CCSD(T)
 CCSD(T)= -0.30023022406D+03

 Unable to determine electronic state:  an orbital has unidentified symmetry.
 Alpha  occ. eigenvalues --  -20.50211 -20.50210 -20.44673 -20.44672  -1.29014
 Alpha  occ. eigenvalues --   -1.28578  -0.91455  -0.89385  -0.48030  -0.47358
 Alpha  occ. eigenvalues --   -0.45118  -0.40936  -0.39745  -0.37967  -0.26445
 Alpha  occ. eigenvalues --   -0.25606  -0.08047
 Alpha virt. eigenvalues --    0.08716   0.50312   0.57230   0.90084   0.91946
 Alpha virt. eigenvalues --    0.92463   0.94528   0.95588   0.97295   0.98350
 Alpha virt. eigenvalues --    0.99731   1.01707   1.11792   1.13068   1.13956

 Mulliken charges and spin densities:
               1          2
     1  O   -0.147108   0.324351
     2  O   -0.352892   0.175649
     3  O   -0.352892   0.175649
     4  O   -0.147108   0.324351
 Sum of Mulliken charges =  -1.00000   1.00000

 Dipole moment (field-independent basis, Debye):
    X=             -0.0000    Y=              0.0000    Z=              0.0000  Tot=              0.0000
 Quadrupole moment (field-independent basis, Debye-Ang):
   XX=            -22.5640   YY=            -23.1360   ZZ=            -47.6293
   XY=              0.0000   XZ=              0.0000   YZ=              0.0000

 23552\CCSD=-300.1069927\CCSD(T)=-300.2302241\RMSD=3.868e-10\PG=D*H [C*
 Normal termination of Gaussian 16 at Sat Jan 14 20:56:14 2023.
