 Gaussian 16, Revision A.03,
 Gaussian 16:  ES64L-G16RevA.03 25-Dec-2016

 ---------------------------------------------------------------
 #p ROCCSD(T)/cc-pVTZ Guess=Read SCF=(VeryTight,CDIIS,VShift=10)
 ---------------------------------------------------------------

 --------
 O2_O2_73
 --------
 Symbolic Z-matrix:
 Charge = -1 Multiplicity = 2

                         Standard orientation:
 ---------------------------------------------------------------------
 Center     Atomic      Atomic             Coordinates (Angstroms)
 Number     Number       Type             X           Y           Z
 ---------------------------------------------------------------------
      1          8           0        0.000000    0.000000    1.309363
      2          8           0        0.000000    0.000000    2.661744
      3          8           0        0.000000    0.000000   -2.661744
      4          8           0        0.000000    0.000000   -1.309363
 ---------------------------------------------------------------------

 SCF Done:  E(ROHF) =  -298.983075140     A.U. after   12 cycles
 E2 =    -0.1481942713D+01 EUMP2 =    -0.30046501785242D+03
 CCSD(T)
 CCSD(T)= -0.30022916443D+03

 Unable to determine electronic state:  an orbital has unidentified symmetry.
 Alpha  occ. eigenvalues --  -20.50027 -20.50026 -20.45162 -20.45162  -1.29071
 Alpha  occ. eigenvalues --   -1.28784  -0.91313  -0.89864  -0.48035  -0.47576
 Alpha  occ. eigenvalues --   -0.44783  -0.41693  -0.39755  -0.38308  -0.26552
 Alpha  occ. eigenvalues --   -0.25953  -0.07718
 Alpha virt. eigenvalues --    0.07929   0.49821   0.56543   0.90405   0.92120
 Alpha virt. eigenvalues --    0.92665   0.93266   0.94988   0.95228   0.96952
 Alpha virt. eigenvalues --    0.99647   1.01655   1.10269   1.12429   1.13083

 Mulliken charges and spin densities:
               1          2
     1  O   -0.158284   0.317748
     2  O   -0.341716   0.182252
     3  O   -0.341716   0.182252
     4  O   -0.158284   0.317748
 Sum of Mulliken charges =  -1.00000   1.00000

 Dipole moment (field-independent basis, Debye):
    X=             -0.0000    Y=              0.0000    Z=              0.0000  Tot=              0.0000
 Quadrupole moment (field-independent basis, Debye-Ang):
   XX=            -22.5412   YY=            -23.1245   ZZ=            -48.8490
   XY=              0.0000   XZ=              0.0000   YZ=              0.0000

 6997\CCSD=-300.1026152\CCSD(T)=-300.2291644\RMSD=3.502e-10\PG=D*H [C*(
 Normal termination of Gaussian 16 at Sat Jan 14 21:13:02 2023.
