 Gaussian 16, Revision A.03,
 Gaussian 16:  ES64L-G16RevA.03 25-Dec-2016

 ---------------------------------------------------------------
 #p ROCCSD(T)/cc-pVTZ Guess=Read SCF=(VeryTight,CDIIS,VShift=10)
 ---------------------------------------------------------------

 ---------
 O2_O2_189
 ---------
 Symbolic Z-matrix:
 Charge = -1 Multiplicity = 2

                         Standard orientation:
 ---------------------------------------------------------------------
 Center     Atomic      Atomic             Coordinates (Angstroms)
 Number     Number       Type             X           Y           Z
 ---------------------------------------------------------------------
      1          8           0        0.000000    0.000000    2.130562
      2          8           0        0.000000    0.000000    3.482942
      3          8           0        0.000000    0.000000   -3.482942
      4          8           0        0.000000    0.000000   -2.130562
 ---------------------------------------------------------------------

 SCF Done:  E(ROHF) =  -299.131535268     A.U. after    8 cycles
 E2 =    -0.1045895841D+01 EUMP2 =    -0.30017743110892D+03
 CCSD(T)
 CCSD(T)= -0.30018281059D+03

 Unable to determine electronic state:  an orbital has unidentified symmetry.
 Alpha  occ. eigenvalues --  -20.48072 -20.48072 -20.46946 -20.46945  -1.29513
 Alpha  occ. eigenvalues --   -1.29504  -0.91517  -0.91449  -0.46832  -0.46824
 Alpha  occ. eigenvalues --   -0.44275  -0.44162  -0.41709  -0.41381  -0.25655
 Alpha  occ. eigenvalues --   -0.25636  -0.07653
 Alpha virt. eigenvalues --    0.02183   0.49607   0.51733   0.87872   0.92303
 Alpha virt. eigenvalues --    0.93227   0.93363   0.93389   0.93527   0.95402
 Alpha virt. eigenvalues --    1.00187   1.02377   1.02588   1.02869   1.03068

 Mulliken charges and spin densities:
               1          2
     1  O   -0.213046   0.264345
     2  O   -0.286954   0.235655
     3  O   -0.286954   0.235655
     4  O   -0.213046   0.264345
 Sum of Mulliken charges =  -1.00000   1.00000

 Dipole moment (field-independent basis, Debye):
    X=             -0.0000    Y=              0.0000    Z=              0.0000  Tot=              0.0000
 Quadrupole moment (field-independent basis, Debye-Ang):
   XX=            -21.4469   YY=            -23.7640   ZZ=            -66.0205
   XY=              0.0000   XZ=              0.0000   YZ=              0.0000

 68677\CCSD=-300.1281708\CCSD(T)=-300.1828106\RMSD=1.553e-09\PG=D*H [C*
 Normal termination of Gaussian 16 at Sat Jan 14 23:58:01 2023.
