 Gaussian 16, Revision A.03,
 Gaussian 16:  ES64L-G16RevA.03 25-Dec-2016

 ---------------------------------------------------------------
 #p ROCCSD(T)/cc-pVTZ Guess=Read SCF=(VeryTight,CDIIS,VShift=10)
 ---------------------------------------------------------------

 ---------
 O2_O2_215
 ---------
 Symbolic Z-matrix:
 Charge = -1 Multiplicity = 2

                         Standard orientation:
 ---------------------------------------------------------------------
 Center     Atomic      Atomic             Coordinates (Angstroms)
 Number     Number       Type             X           Y           Z
 ---------------------------------------------------------------------
      1          8           0        0.000000    0.000000    2.314623
      2          8           0        0.000000    0.000000    3.667003
      3          8           0        0.000000    0.000000   -3.667003
      4          8           0        0.000000    0.000000   -2.314623
 ---------------------------------------------------------------------

 SCF Done:  E(ROHF) =  -299.131274583     A.U. after    8 cycles
 E2 =    -0.1046396095D+01 EUMP2 =    -0.30017767067786D+03
 CCSD(T)
 CCSD(T)= -0.30018250776D+03

 Unable to determine electronic state:  an orbital has unidentified symmetry.
 Alpha  occ. eigenvalues --  -20.48294 -20.48294 -20.47305 -20.47305  -1.29799
 Alpha  occ. eigenvalues --   -1.29794  -0.91803  -0.91757  -0.47116  -0.47113
 Alpha  occ. eigenvalues --   -0.44544  -0.44496  -0.41965  -0.41701  -0.25942
 Alpha  occ. eigenvalues --   -0.25935  -0.07614
 Alpha virt. eigenvalues --    0.01550   0.49908   0.50909   0.89222   0.91369
 Alpha virt. eigenvalues --    0.93001   0.93056   0.93138   0.93193   0.95805
 Alpha virt. eigenvalues --    0.97690   1.02243   1.02409   1.02450   1.02612

 Mulliken charges and spin densities:
               1          2
     1  O   -0.217368   0.262784
     2  O   -0.282632   0.237216
     3  O   -0.282632   0.237216
     4  O   -0.217368   0.262784
 Sum of Mulliken charges =  -1.00000   1.00000

 Dipole moment (field-independent basis, Debye):
    X=             -0.0000    Y=              0.0000    Z=              0.0000  Tot=              0.0000
 Quadrupole moment (field-independent basis, Debye-Ang):
   XX=            -21.4443   YY=            -23.7628   ZZ=            -70.9749
   XY=              0.0000   XZ=              0.0000   YZ=              0.0000

 365149\CCSD=-300.1278727\CCSD(T)=-300.1825078\RMSD=1.570e-09\PG=D*H [C
 Normal termination of Gaussian 16 at Sun Jan 15 00:33:06 2023.
