 Gaussian 16, Revision A.03,
 Gaussian 16:  ES64L-G16RevA.03 25-Dec-2016

 ---------------------------------------------------------------
 #p ROCCSD(T)/cc-pVTZ Guess=Read SCF=(VeryTight,CDIIS,VShift=10)
 ---------------------------------------------------------------

 ---------
 O2_O2_146
 ---------
 Symbolic Z-matrix:
 Charge = -1 Multiplicity = 2

                         Standard orientation:
 ---------------------------------------------------------------------
 Center     Atomic      Atomic             Coordinates (Angstroms)
 Number     Number       Type             X           Y           Z
 ---------------------------------------------------------------------
      1          8           0        0.000000    0.000000    1.826152
      2          8           0        0.000000    0.000000    3.178532
      3          8           0        0.000000    0.000000   -3.178532
      4          8           0        0.000000    0.000000   -1.826152
 ---------------------------------------------------------------------

 SCF Done:  E(ROHF) =  -299.132499104     A.U. after    8 cycles
 E2 =    -0.1044946709D+01 EUMP2 =    -0.30017744581278D+03
 CCSD(T)
 CCSD(T)= -0.30018400529D+03

 Unable to determine electronic state:  an orbital has unidentified symmetry.
 Alpha  occ. eigenvalues --  -20.47675 -20.47674 -20.46235 -20.46235  -1.28969
 Alpha  occ. eigenvalues --   -1.28944  -0.90993  -0.90820  -0.46297  -0.46260
 Alpha  occ. eigenvalues --   -0.43834  -0.43426  -0.41234  -0.40738  -0.25126
 Alpha  occ. eigenvalues --   -0.25037  -0.07779
 Alpha virt. eigenvalues --    0.03488   0.48654   0.53593   0.84227   0.93152
 Alpha virt. eigenvalues --    0.93445   0.93572   0.94188   0.94322   0.94882
 Alpha virt. eigenvalues --    1.02133   1.02365   1.04369   1.04545   1.10608

 Mulliken charges and spin densities:
               1          2
     1  O   -0.203808   0.267250
     2  O   -0.296192   0.232750
     3  O   -0.296192   0.232750
     4  O   -0.203808   0.267250
 Sum of Mulliken charges =  -1.00000   1.00000

 Dipole moment (field-independent basis, Debye):
    X=             -0.0000    Y=              0.0000    Z=             -0.0000  Tot=              0.0000
 Quadrupole moment (field-independent basis, Debye-Ang):
   XX=            -21.4566   YY=            -23.7669   ZZ=            -58.5803
   XY=              0.0000   XZ=              0.0000   YZ=              0.0000

 381392\CCSD=-300.1293156\CCSD(T)=-300.1840053\RMSD=4.914e-09\PG=D*H [C
 Normal termination of Gaussian 16 at Sat Jan 14 23:00:55 2023.
