 Gaussian 16, Revision A.03,
 Gaussian 16:  ES64L-G16RevA.03 25-Dec-2016

 ---------------------------------------------------------------
 #p ROCCSD(T)/cc-pVTZ Guess=Read SCF=(VeryTight,CDIIS,VShift=10)
 ---------------------------------------------------------------

 ---------
 O2_O2_147
 ---------
 Symbolic Z-matrix:
 Charge = -1 Multiplicity = 2

                         Standard orientation:
 ---------------------------------------------------------------------
 Center     Atomic      Atomic             Coordinates (Angstroms)
 Number     Number       Type             X           Y           Z
 ---------------------------------------------------------------------
      1          8           0        0.000000    0.000000    1.833232
      2          8           0        0.000000    0.000000    3.185612
      3          8           0        0.000000    0.000000   -3.185612
      4          8           0        0.000000    0.000000   -1.833232
 ---------------------------------------------------------------------

 SCF Done:  E(ROHF) =  -299.132465379     A.U. after    8 cycles
 E2 =    -0.1044970861D+01 EUMP2 =    -0.30017743623986D+03
 CCSD(T)
 CCSD(T)= -0.30018396259D+03

 Unable to determine electronic state:  an orbital has unidentified symmetry.
 Alpha  occ. eigenvalues --  -20.47685 -20.47684 -20.46253 -20.46253  -1.28982
 Alpha  occ. eigenvalues --   -1.28958  -0.91005  -0.90837  -0.46310  -0.46274
 Alpha  occ. eigenvalues --   -0.43843  -0.43447  -0.41246  -0.40755  -0.25139
 Alpha  occ. eigenvalues --   -0.25053  -0.07775
 Alpha virt. eigenvalues --    0.03453   0.48671   0.53545   0.84290   0.93146
 Alpha virt. eigenvalues --    0.93445   0.93572   0.94165   0.94299   0.94887
 Alpha virt. eigenvalues --    1.02149   1.02380   1.04316   1.04494   1.10272

 Mulliken charges and spin densities:
               1          2
     1  O   -0.204062   0.267180
     2  O   -0.295938   0.232820
     3  O   -0.295938   0.232820
     4  O   -0.204062   0.267180
 Sum of Mulliken charges =  -1.00000   1.00000

 Dipole moment (field-independent basis, Debye):
    X=             -0.0000    Y=             -0.0000    Z=             -0.0000  Tot=              0.0000
 Quadrupole moment (field-independent basis, Debye-Ang):
   XX=            -21.4563   YY=            -23.7668   ZZ=            -58.7425
   XY=              0.0000   XZ=              0.0000   YZ=              0.0000

 380949\CCSD=-300.129275\CCSD(T)=-300.1839626\RMSD=4.765e-09\PG=D*H [C*
 Normal termination of Gaussian 16 at Sat Jan 14 23:02:32 2023.
