 Gaussian 16, Revision A.03,
 Gaussian 16:  ES64L-G16RevA.03 25-Dec-2016

 ---------------------------------------------------------------
 #p ROCCSD(T)/cc-pVTZ Guess=Read SCF=(VeryTight,CDIIS,VShift=10)
 ---------------------------------------------------------------

 ---------
 O2_O2_131
 ---------
 Symbolic Z-matrix:
 Charge = -1 Multiplicity = 2

                         Standard orientation:
 ---------------------------------------------------------------------
 Center     Atomic      Atomic             Coordinates (Angstroms)
 Number     Number       Type             X           Y           Z
 ---------------------------------------------------------------------
      1          8           0        0.000000    0.000000    1.719962
      2          8           0        0.000000    0.000000    3.072343
      3          8           0        0.000000    0.000000   -3.072343
      4          8           0        0.000000    0.000000   -1.719962
 ---------------------------------------------------------------------

 SCF Done:  E(ROHF) =  -299.133094263     A.U. after    8 cycles
 E2 =    -0.1044564896D+01 EUMP2 =    -0.30017765915906D+03
 CCSD(T)
 CCSD(T)= -0.30018475948D+03

 Unable to determine electronic state:  an orbital has unidentified symmetry.
 Alpha  occ. eigenvalues --  -20.47529 -20.47528 -20.45943 -20.45943  -1.28756
 Alpha  occ. eigenvalues --   -1.28717  -0.90803  -0.90548  -0.46092  -0.46029
 Alpha  occ. eigenvalues --   -0.43706  -0.43081  -0.41055  -0.40467  -0.24929
 Alpha  occ. eigenvalues --   -0.24784  -0.07857
 Alpha virt. eigenvalues --    0.04053   0.48514   0.54322   0.83720   0.93178
 Alpha virt. eigenvalues --    0.93402   0.93518   0.94564   0.94694   0.94841
 Alpha virt. eigenvalues --    1.01836   1.02081   1.05296   1.05456   1.13048

 Mulliken charges and spin densities:
               1          2
     1  O   -0.199715   0.268287
     2  O   -0.300285   0.231713
     3  O   -0.300285   0.231713
     4  O   -0.199715   0.268287
 Sum of Mulliken charges =  -1.00000   1.00000

 Dipole moment (field-independent basis, Debye):
    X=             -0.0000    Y=              0.0000    Z=              0.0000  Tot=              0.0000
 Quadrupole moment (field-independent basis, Debye-Ang):
   XX=            -21.4627   YY=            -23.7682   ZZ=            -56.2120
   XY=              0.0000   XZ=              0.0000   YZ=              0.0000

 38918\CCSD=-300.1300335\CCSD(T)=-300.1847595\RMSD=7.438e-09\PG=D*H [C*
 Normal termination of Gaussian 16 at Sat Jan 14 22:40:22 2023.
