 Gaussian 16, Revision A.03,
 Gaussian 16:  ES64L-G16RevA.03 25-Dec-2016

 ---------------------------------------------------------------
 #p ROCCSD(T)/cc-pVTZ Guess=Read SCF=(VeryTight,CDIIS,VShift=10)
 ---------------------------------------------------------------

 ---------
 O2_O2_180
 ---------
 Symbolic Z-matrix:
 Charge = -1 Multiplicity = 2

                         Standard orientation:
 ---------------------------------------------------------------------
 Center     Atomic      Atomic             Coordinates (Angstroms)
 Number     Number       Type             X           Y           Z
 ---------------------------------------------------------------------
      1          8           0        0.000000    0.000000    2.066848
      2          8           0        0.000000    0.000000    3.419228
      3          8           0        0.000000    0.000000   -3.419228
      4          8           0        0.000000    0.000000   -2.066848
 ---------------------------------------------------------------------

 SCF Done:  E(ROHF) =  -299.131669337     A.U. after    8 cycles
 E2 =    -0.1045709727D+01 EUMP2 =    -0.30017737906413D+03
 CCSD(T)
 CCSD(T)= -0.30018297113D+03

 Unable to determine electronic state:  an orbital has unidentified symmetry.
 Alpha  occ. eigenvalues --  -20.47992 -20.47992 -20.46810 -20.46810  -1.29407
 Alpha  occ. eigenvalues --   -1.29396  -0.91412  -0.91331  -0.46727  -0.46715
 Alpha  occ. eigenvalues --   -0.44179  -0.44030  -0.41615  -0.41260  -0.25550
 Alpha  occ. eigenvalues --   -0.25522  -0.07671
 Alpha virt. eigenvalues --    0.02426   0.49430   0.52079   0.87155   0.92577
 Alpha virt. eigenvalues --    0.93296   0.93432   0.93526   0.93664   0.95251
 Alpha virt. eigenvalues --    1.01624   1.02388   1.02601   1.03084   1.03280

 Mulliken charges and spin densities:
               1          2
     1  O   -0.211357   0.264926
     2  O   -0.288643   0.235074
     3  O   -0.288643   0.235074
     4  O   -0.211357   0.264926
 Sum of Mulliken charges =  -1.00000   1.00000

 Dipole moment (field-independent basis, Debye):
    X=             -0.0000    Y=              0.0000    Z=             -0.0000  Tot=              0.0000
 Quadrupole moment (field-independent basis, Debye-Ang):
   XX=            -21.4483   YY=            -23.7645   ZZ=            -64.3849
   XY=              0.0000   XZ=              0.0000   YZ=              0.0000

 370455\CCSD=-300.1283266\CCSD(T)=-300.1829711\RMSD=1.749e-09\PG=D*H [C
 Normal termination of Gaussian 16 at Sat Jan 14 23:46:36 2023.
