 Gaussian 16, Revision A.03,
 Gaussian 16:  ES64L-G16RevA.03 25-Dec-2016

 ---------------------------------------------------------------
 #p ROCCSD(T)/cc-pVTZ Guess=Read SCF=(VeryTight,CDIIS,VShift=10)
 ---------------------------------------------------------------

 ---------
 O2_O2_213
 ---------
 Symbolic Z-matrix:
 Charge = -1 Multiplicity = 2

                         Standard orientation:
 ---------------------------------------------------------------------
 Center     Atomic      Atomic             Coordinates (Angstroms)
 Number     Number       Type             X           Y           Z
 ---------------------------------------------------------------------
      1          8           0        0.000000    0.000000    2.300464
      2          8           0        0.000000    0.000000    3.652845
      3          8           0        0.000000    0.000000   -3.652845
      4          8           0        0.000000    0.000000   -2.300464
 ---------------------------------------------------------------------

 SCF Done:  E(ROHF) =  -299.131289506     A.U. after    8 cycles
 E2 =    -0.1046359693D+01 EUMP2 =    -0.30017764919855D+03
 CCSD(T)
 CCSD(T)= -0.30018252471D+03

 Unable to determine electronic state:  an orbital has unidentified symmetry.
 Alpha  occ. eigenvalues --  -20.48277 -20.48277 -20.47279 -20.47279  -1.29778
 Alpha  occ. eigenvalues --   -1.29773  -0.91782  -0.91735  -0.47095  -0.47092
 Alpha  occ. eigenvalues --   -0.44524  -0.44472  -0.41946  -0.41678  -0.25921
 Alpha  occ. eigenvalues --   -0.25913  -0.07617
 Alpha virt. eigenvalues --    0.01595   0.49896   0.50963   0.89154   0.91441
 Alpha virt. eigenvalues --    0.93019   0.93079   0.93156   0.93216   0.95781
 Alpha virt. eigenvalues --    0.97816   1.02257   1.02439   1.02464   1.02641

 Mulliken charges and spin densities:
               1          2
     1  O   -0.217062   0.262897
     2  O   -0.282938   0.237103
     3  O   -0.282938   0.237103
     4  O   -0.217062   0.262897
 Sum of Mulliken charges =  -1.00000   1.00000

 Dipole moment (field-independent basis, Debye):
    X=             -0.0000    Y=             -0.0000    Z=              0.0000  Tot=              0.0000
 Quadrupole moment (field-independent basis, Debye-Ang):
   XX=            -21.4445   YY=            -23.7629   ZZ=            -70.5817
   XY=              0.0000   XZ=              0.0000   YZ=              0.0000

 365356\CCSD=-300.1278896\CCSD(T)=-300.1825247\RMSD=1.567e-09\PG=D*H [C
 Normal termination of Gaussian 16 at Sun Jan 15 00:30:27 2023.
