 Gaussian 16, Revision A.03,
 Gaussian 16:  ES64L-G16RevA.03 25-Dec-2016

 ---------------------------------------------------------------
 #p ROCCSD(T)/cc-pVTZ Guess=Read SCF=(VeryTight,CDIIS,VShift=10)
 ---------------------------------------------------------------

 --------
 O2_O2_30
 --------
 Symbolic Z-matrix:
 Charge = -1 Multiplicity = 2

                         Standard orientation:
 ---------------------------------------------------------------------
 Center     Atomic      Atomic             Coordinates (Angstroms)
 Number     Number       Type             X           Y           Z
 ---------------------------------------------------------------------
      1          8           0        0.000000    0.000000    1.004954
      2          8           0        0.000000    0.000000    2.357334
      3          8           0        0.000000    0.000000   -2.357334
      4          8           0        0.000000    0.000000   -1.004954
 ---------------------------------------------------------------------

 SCF Done:  E(ROHF) =  -299.017394691     A.U. after    9 cycles
 E2 =    -0.1326964702D+01 EUMP2 =    -0.30034435939309D+03
 CCSD(T)
 CCSD(T)= -0.30022835109D+03

 Unable to determine electronic state:  an orbital has unidentified symmetry.
 Alpha  occ. eigenvalues --  -20.50942 -20.50940 -20.42634 -20.42634  -1.29274
 Alpha  occ. eigenvalues --   -1.27701  -0.93059  -0.87069  -0.48559  -0.47131
 Alpha  occ. eigenvalues --   -0.46450  -0.40139  -0.37032  -0.36576  -0.26183
 Alpha  occ. eigenvalues --   -0.24124  -0.09555
 Alpha virt. eigenvalues --    0.11851   0.51537   0.59984   0.90377   0.91600
 Alpha virt. eigenvalues --    0.93130   0.93923   0.96724   0.98369   1.00875
 Alpha virt. eigenvalues --    1.02837   1.11706   1.12740   1.15836   1.17063

 Mulliken charges and spin densities:
               1          2
     1  O   -0.096553   0.347343
     2  O   -0.403447   0.152657
     3  O   -0.403447   0.152657
     4  O   -0.096553   0.347343
 Sum of Mulliken charges =  -1.00000   1.00000

 Dipole moment (field-independent basis, Debye):
    X=             -0.0000    Y=             -0.0000    Z=             -0.0000  Tot=              0.0000
 Quadrupole moment (field-independent basis, Debye-Ang):
   XX=            -22.6119   YY=            -23.1489   ZZ=            -44.9318
   XY=              0.0000   XZ=              0.0000   YZ=              0.0000

 77106\CCSD=-300.1177425\CCSD(T)=-300.2283511\RMSD=4.906e-09\PG=D*H [C*
 Normal termination of Gaussian 16 at Sat Jan 14 20:08:35 2023.
