 Gaussian 16, Revision A.03,
 Gaussian 16:  ES64L-G16RevA.03 25-Dec-2016

 ---------------------------------------------------------------
 #p ROCCSD(T)/cc-pVTZ Guess=Read SCF=(VeryTight,CDIIS,VShift=10)
 ---------------------------------------------------------------

 ---------
 O2_O2_193
 ---------
 Symbolic Z-matrix:
 Charge = -1 Multiplicity = 2

                         Standard orientation:
 ---------------------------------------------------------------------
 Center     Atomic      Atomic             Coordinates (Angstroms)
 Number     Number       Type             X           Y           Z
 ---------------------------------------------------------------------
      1          8           0        0.000000    0.000000    2.158879
      2          8           0        0.000000    0.000000    3.511259
      3          8           0        0.000000    0.000000   -3.511259
      4          8           0        0.000000    0.000000   -2.158879
 ---------------------------------------------------------------------

 SCF Done:  E(ROHF) =  -299.131484110     A.U. after    8 cycles
 E2 =    -0.1045976513D+01 EUMP2 =    -0.30017746062291D+03
 CCSD(T)
 CCSD(T)= -0.30018275014D+03

 Unable to determine electronic state:  an orbital has unidentified symmetry.
 Alpha  occ. eigenvalues --  -20.48107 -20.48107 -20.47004 -20.47004  -1.29559
 Alpha  occ. eigenvalues --   -1.29551  -0.91563  -0.91499  -0.46877  -0.46871
 Alpha  occ. eigenvalues --   -0.44317  -0.44217  -0.41750  -0.41433  -0.25701
 Alpha  occ. eigenvalues --   -0.25684  -0.07645
 Alpha virt. eigenvalues --    0.02079   0.49674   0.51588   0.88151   0.92168
 Alpha virt. eigenvalues --    0.93194   0.93330   0.93332   0.93470   0.95471
 Alpha virt. eigenvalues --    0.99657   1.02365   1.02575   1.02785   1.02984

 Mulliken charges and spin densities:
               1          2
     1  O   -0.213762   0.264093
     2  O   -0.286238   0.235907
     3  O   -0.286238   0.235907
     4  O   -0.213762   0.264093
 Sum of Mulliken charges =  -1.00000   1.00000

 Dipole moment (field-independent basis, Debye):
    X=             -0.0000    Y=              0.0000    Z=             -0.0000  Tot=              0.0000
 Quadrupole moment (field-independent basis, Debye-Ang):
   XX=            -21.4464   YY=            -23.7638   ZZ=            -66.7606
   XY=              0.0000   XZ=              0.0000   YZ=              0.0000

 367994\CCSD=-300.1281118\CCSD(T)=-300.1827501\RMSD=1.522e-09\PG=D*H [C
 Normal termination of Gaussian 16 at Sun Jan 15 00:03:59 2023.
