 Gaussian 16, Revision A.03,
 Gaussian 16:  ES64L-G16RevA.03 25-Dec-2016

 ---------------------------------------------------------------
 #p ROCCSD(T)/cc-pVTZ Guess=Read SCF=(VeryTight,CDIIS,VShift=10)
 ---------------------------------------------------------------

 ---------
 O2_O2_247
 ---------
 Symbolic Z-matrix:
 Charge = -1 Multiplicity = 2

                         Standard orientation:
 ---------------------------------------------------------------------
 Center     Atomic      Atomic             Coordinates (Angstroms)
 Number     Number       Type             X           Y           Z
 ---------------------------------------------------------------------
      1          8           0        0.000000    0.000000    2.541161
      2          8           0        0.000000    0.000000    3.893541
      3          8           0        0.000000    0.000000   -3.893541
      4          8           0        0.000000    0.000000   -2.541161
 ---------------------------------------------------------------------

 SCF Done:  E(ROHF) =  -299.131105832     A.U. after    8 cycles
 E2 =    -0.1046931696D+01 EUMP2 =    -0.30017803752815D+03
 CCSD(T)
 CCSD(T)= -0.30018231996D+03

 Unable to determine electronic state:  an orbital has unidentified symmetry.
 Alpha  occ. eigenvalues --  -20.48543 -20.48543 -20.47690 -20.47690  -1.30111
 Alpha  occ. eigenvalues --   -1.30108  -0.92117  -0.92085  -0.47427  -0.47427
 Alpha  occ. eigenvalues --   -0.44854  -0.44838  -0.42250  -0.42042  -0.26257
 Alpha  occ. eigenvalues --   -0.26255  -0.07586
 Alpha virt. eigenvalues --    0.00882   0.49924   0.50242   0.89741   0.90424
 Alpha virt. eigenvalues --    0.92716   0.92729   0.92854   0.92866   0.95975
 Alpha virt. eigenvalues --    0.96473   1.01989   1.02027   1.02196   1.02232

 Mulliken charges and spin densities:
               1          2
     1  O   -0.221759   0.261128
     2  O   -0.278241   0.238872
     3  O   -0.278241   0.238872
     4  O   -0.221759   0.261128
 Sum of Mulliken charges =  -1.00000   1.00000

 Dipole moment (field-independent basis, Debye):
    X=             -0.0000    Y=              0.0000    Z=              0.0000  Tot=              0.0000
 Quadrupole moment (field-independent basis, Debye-Ang):
   XX=            -21.4426   YY=            -23.7616   ZZ=            -77.5392
   XY=              0.0000   XZ=              0.0000   YZ=              0.0000

 362705\CCSD=-300.1276822\CCSD(T)=-300.18232\RMSD=1.424e-09\PG=D*H [C*(
 Normal termination of Gaussian 16 at Sun Jan 15 01:16:16 2023.
