 Gaussian 16, Revision A.03,
 Gaussian 16:  ES64L-G16RevA.03 25-Dec-2016

 ---------------------------------------------------------------
 #p ROCCSD(T)/cc-pVTZ Guess=Read SCF=(VeryTight,CDIIS,VShift=10)
 ---------------------------------------------------------------

 ---------
 O2_O2_295
 ---------
 Symbolic Z-matrix:
 Charge = -1 Multiplicity = 2

                         Standard orientation:
 ---------------------------------------------------------------------
 Center     Atomic      Atomic             Coordinates (Angstroms)
 Number     Number       Type             X           Y           Z
 ---------------------------------------------------------------------
      1          8           0        0.000000    0.000000    2.880967
      2          8           0        0.000000    0.000000    4.233347
      3          8           0        0.000000    0.000000   -4.233347
      4          8           0        0.000000    0.000000   -2.880967
 ---------------------------------------------------------------------

 SCF Done:  E(ROHF) =  -299.130978619     A.U. after    8 cycles
 E2 =    -0.1047592230D+01 EUMP2 =    -0.30017857084908D+03
 CCSD(T)
 CCSD(T)= -0.30018218616D+03

 Unable to determine electronic state:  an orbital has unidentified symmetry.
 Alpha  occ. eigenvalues --  -20.48868 -20.48868 -20.48171 -20.48171  -1.30508
 Alpha  occ. eigenvalues --   -1.30506  -0.92518  -0.92496  -0.47824  -0.47824
 Alpha  occ. eigenvalues --   -0.45259  -0.45256  -0.42618  -0.42467  -0.26659
 Alpha  occ. eigenvalues --   -0.26659  -0.07562
 Alpha virt. eigenvalues --    0.00051   0.49637   0.49675   0.89619   0.89702
 Alpha virt. eigenvalues --    0.92333   0.92334   0.92470   0.92471   0.95734
 Alpha virt. eigenvalues --    0.95783   1.01604   1.01607   1.01811   1.01814

 Mulliken charges and spin densities:
               1          2
     1  O   -0.226885   0.259145
     2  O   -0.273115   0.240855
     3  O   -0.273115   0.240855
     4  O   -0.226885   0.259145
 Sum of Mulliken charges =  -1.00000   1.00000

 Dipole moment (field-independent basis, Debye):
    X=             -0.0000    Y=              0.0000    Z=             -0.0000  Tot=              0.0000
 Quadrupole moment (field-independent basis, Debye-Ang):
   XX=            -21.4412   YY=            -23.7605   ZZ=            -88.3501
   XY=              0.0000   XZ=              0.0000   YZ=              0.0000

 360649\CCSD=-300.1275396\CCSD(T)=-300.1821862\RMSD=1.035e-09\PG=D*H [C
 Normal termination of Gaussian 16 at Sun Jan 15 02:21:23 2023.
