 Gaussian 16, Revision A.03,
 Gaussian 16:  ES64L-G16RevA.03 25-Dec-2016

 ---------------------------------------------------------------
 #p ROCCSD(T)/cc-pVTZ Guess=Read SCF=(VeryTight,CDIIS,VShift=10)
 ---------------------------------------------------------------

 --------
 O2_O2_57
 --------
 Symbolic Z-matrix:
 Charge = -1 Multiplicity = 2

                         Standard orientation:
 ---------------------------------------------------------------------
 Center     Atomic      Atomic             Coordinates (Angstroms)
 Number     Number       Type             X           Y           Z
 ---------------------------------------------------------------------
      1          8           0        0.000000    0.000000    1.196095
      2          8           0        0.000000    0.000000    2.548475
      3          8           0        0.000000    0.000000   -2.548475
      4          8           0        0.000000    0.000000   -1.196095
 ---------------------------------------------------------------------

 SCF Done:  E(ROHF) =  -298.995637896     A.U. after   12 cycles
 E2 =    -0.1424249360D+01 EUMP2 =    -0.30041988725628D+03
 CCSD(T)
 CCSD(T)= -0.30023064496D+03

 Unable to determine electronic state:  an orbital has unidentified symmetry.
 Alpha  occ. eigenvalues --  -20.50308 -20.50306 -20.44423 -20.44423  -1.29002
 Alpha  occ. eigenvalues --   -1.28473  -0.91566  -0.89127  -0.48048  -0.47248
 Alpha  occ. eigenvalues --   -0.45320  -0.40522  -0.39756  -0.37794  -0.26400
 Alpha  occ. eigenvalues --   -0.25427  -0.08223
 Alpha virt. eigenvalues --    0.09114   0.50525   0.57572   0.89994   0.91880
 Alpha virt. eigenvalues --    0.92431   0.94496   0.95753   0.97452   0.99815
 Alpha virt. eigenvalues --    1.00702   1.01779   1.12477   1.13048   1.14038

 Mulliken charges and spin densities:
               1          2
     1  O   -0.141136   0.327593
     2  O   -0.358864   0.172407
     3  O   -0.358864   0.172407
     4  O   -0.141136   0.327593
 Sum of Mulliken charges =  -1.00000   1.00000

 Dipole moment (field-independent basis, Debye):
    X=             -0.0000    Y=             -0.0000    Z=              0.0000  Tot=              0.0000
 Quadrupole moment (field-independent basis, Debye-Ang):
   XX=            -22.5744   YY=            -23.1410   ZZ=            -47.1154
   XY=              0.0000   XZ=              0.0000   YZ=              0.0000

 389\CCSD=-300.1090858\CCSD(T)=-300.230645\RMSD=5.906e-10\PG=D*H [C*(O1
 Normal termination of Gaussian 16 at Sat Jan 14 20:48:54 2023.
