 Gaussian 16, Revision A.03,
 Gaussian 16:  ES64L-G16RevA.03 25-Dec-2016

 ---------------------------------------------------------------
 #p ROCCSD(T)/cc-pVTZ Guess=Read SCF=(VeryTight,CDIIS,VShift=10)
 ---------------------------------------------------------------

 --------
 O2_O2_79
 --------
 Symbolic Z-matrix:
 Charge = -1 Multiplicity = 2

                         Standard orientation:
 ---------------------------------------------------------------------
 Center     Atomic      Atomic             Coordinates (Angstroms)
 Number     Number       Type             X           Y           Z
 ---------------------------------------------------------------------
      1          8           0        0.000000    0.000000    1.351840
      2          8           0        0.000000    0.000000    2.704220
      3          8           0        0.000000    0.000000   -2.704220
      4          8           0        0.000000    0.000000   -1.351840
 ---------------------------------------------------------------------

 SCF Done:  E(ROHF) =  -298.978904483     A.U. after   11 cycles
 E2 =    -0.1503277309D+01 EUMP2 =    -0.30048218179261D+03
 CCSD(T)
 CCSD(T)= -0.30022860307D+03

 Unable to determine electronic state:  an orbital has unidentified symmetry.
 Alpha  occ. eigenvalues --  -20.49944 -20.49943 -20.45400 -20.45400  -1.29116
 Alpha  occ. eigenvalues --   -1.28886  -0.91280  -0.90084  -0.48057  -0.47684
 Alpha  occ. eigenvalues --   -0.44654  -0.42035  -0.39776  -0.38474  -0.26614
 Alpha  occ. eigenvalues --   -0.26120  -0.07568
 Alpha virt. eigenvalues --    0.07543   0.49545   0.56198   0.90626   0.91208
 Alpha virt. eigenvalues --    0.92232   0.92826   0.94861   0.95033   0.96764
 Alpha virt. eigenvalues --    0.99656   1.01683   1.09450   1.11602   1.13077

 Mulliken charges and spin densities:
               1          2
     1  O   -0.163448   0.314453
     2  O   -0.336552   0.185547
     3  O   -0.336552   0.185547
     4  O   -0.163448   0.314453
 Sum of Mulliken charges =  -1.00000   1.00000

 Dipole moment (field-independent basis, Debye):
    X=             -0.0000    Y=             -0.0000    Z=              0.0000  Tot=              0.0000
 Quadrupole moment (field-independent basis, Debye-Ang):
   XX=            -22.5294   YY=            -23.1184   ZZ=            -49.5594
   XY=              0.0000   XZ=              0.0000   YZ=              0.0000

 82949\CCSD=-300.100437\CCSD(T)=-300.2286031\RMSD=9.511e-09\PG=D*H [C*(
 Normal termination of Gaussian 16 at Sat Jan 14 21:22:06 2023.
