 Gaussian 16, Revision A.03,
 Gaussian 16:  ES64L-G16RevA.03 25-Dec-2016

 ---------------------------------------------------------------
 #p ROCCSD(T)/cc-pVTZ Guess=Read SCF=(VeryTight,CDIIS,VShift=10)
 ---------------------------------------------------------------

 --------
 O2_O2_31
 --------
 Symbolic Z-matrix:
 Charge = -1 Multiplicity = 2

                         Standard orientation:
 ---------------------------------------------------------------------
 Center     Atomic      Atomic             Coordinates (Angstroms)
 Number     Number       Type             X           Y           Z
 ---------------------------------------------------------------------
      1          8           0        0.000000    0.000000    1.012034
      2          8           0        0.000000    0.000000    2.364414
      3          8           0        0.000000    0.000000   -2.364414
      4          8           0        0.000000    0.000000   -1.012034
 ---------------------------------------------------------------------

 SCF Done:  E(ROHF) =  -299.016773802     A.U. after    9 cycles
 E2 =    -0.1330473295D+01 EUMP2 =    -0.30034724709623D+03
 CCSD(T)
 CCSD(T)= -0.30022873559D+03

 Unable to determine electronic state:  an orbital has unidentified symmetry.
 Alpha  occ. eigenvalues --  -20.50916 -20.50913 -20.42718 -20.42718  -1.29247
 Alpha  occ. eigenvalues --   -1.27738  -0.92964  -0.87172  -0.48520  -0.47039
 Alpha  occ. eigenvalues --   -0.46488  -0.40109  -0.37214  -0.36632  -0.26190
 Alpha  occ. eigenvalues --   -0.24186  -0.09492
 Alpha virt. eigenvalues --    0.11727   0.51505   0.59869   0.90337   0.91610
 Alpha virt. eigenvalues --    0.93080   0.93948   0.96684   0.98331   1.00814
 Alpha virt. eigenvalues --    1.02774   1.11576   1.12759   1.15725   1.16723

 Mulliken charges and spin densities:
               1          2
     1  O   -0.098622   0.346560
     2  O   -0.401378   0.153440
     3  O   -0.401378   0.153440
     4  O   -0.098622   0.346560
 Sum of Mulliken charges =  -1.00000   1.00000

 Dipole moment (field-independent basis, Debye):
    X=             -0.0000    Y=             -0.0000    Z=             -0.0000  Tot=              0.0000
 Quadrupole moment (field-independent basis, Debye-Ang):
   XX=            -22.6117   YY=            -23.1497   ZZ=            -44.9906
   XY=              0.0000   XZ=              0.0000   YZ=              0.0000

 23342\CCSD=-300.1176651\CCSD(T)=-300.2287356\RMSD=4.014e-09\PG=D*H [C*
 Normal termination of Gaussian 16 at Sat Jan 14 20:10:02 2023.
