 Gaussian 16, Revision A.03,
 Gaussian 16:  ES64L-G16RevA.03 25-Dec-2016

 ---------------------------------------------------------------
 #p ROCCSD(T)/cc-pVTZ Guess=Read SCF=(VeryTight,CDIIS,VShift=10)
 ---------------------------------------------------------------

 ---------
 O2_O2_150
 ---------
 Symbolic Z-matrix:
 Charge = -1 Multiplicity = 2

                         Standard orientation:
 ---------------------------------------------------------------------
 Center     Atomic      Atomic             Coordinates (Angstroms)
 Number     Number       Type             X           Y           Z
 ---------------------------------------------------------------------
      1          8           0        0.000000    0.000000    1.854469
      2          8           0        0.000000    0.000000    3.206849
      3          8           0        0.000000    0.000000   -3.206849
      4          8           0        0.000000    0.000000   -1.854469
 ---------------------------------------------------------------------

 SCF Done:  E(ROHF) =  -299.132368209     A.U. after    8 cycles
 E2 =    -0.1045042510D+01 EUMP2 =    -0.30017741071852D+03
 CCSD(T)
 CCSD(T)= -0.30018383970D+03

 Unable to determine electronic state:  an orbital has unidentified symmetry.
 Alpha  occ. eigenvalues --  -20.47713 -20.47713 -20.46308 -20.46308  -1.29023
 Alpha  occ. eigenvalues --   -1.29001  -0.91043  -0.90887  -0.46350  -0.46318
 Alpha  occ. eigenvalues --   -0.43872  -0.43508  -0.41281  -0.40805  -0.25178
 Alpha  occ. eigenvalues --   -0.25099  -0.07762
 Alpha virt. eigenvalues --    0.03349   0.48728   0.53403   0.84496   0.93123
 Alpha virt. eigenvalues --    0.93442   0.93571   0.94097   0.94232   0.94905
 Alpha virt. eigenvalues --    1.02193   1.02422   1.04166   1.04346   1.09271

 Mulliken charges and spin densities:
               1          2
     1  O   -0.204809   0.266971
     2  O   -0.295191   0.233029
     3  O   -0.295191   0.233029
     4  O   -0.204809   0.266971
 Sum of Mulliken charges =  -1.00000   1.00000

 Dipole moment (field-independent basis, Debye):
    X=             -0.0000    Y=              0.0000    Z=              0.0000  Tot=              0.0000
 Quadrupole moment (field-independent basis, Debye-Ang):
   XX=            -21.4553   YY=            -23.7666   ZZ=            -59.2320
   XY=              0.0000   XZ=              0.0000   YZ=              0.0000

 379671\CCSD=-300.129158\CCSD(T)=-300.1838397\RMSD=4.330e-09\PG=D*H [C*
 Normal termination of Gaussian 16 at Sat Jan 14 23:06:55 2023.
