 Gaussian 16, Revision A.03,
 Gaussian 16:  ES64L-G16RevA.03 25-Dec-2016

 ---------------------------------------------------------------
 #p ROCCSD(T)/cc-pVTZ Guess=Read SCF=(VeryTight,CDIIS,VShift=10)
 ---------------------------------------------------------------

 --------
 O2_O2_67
 --------
 Symbolic Z-matrix:
 Charge = -1 Multiplicity = 2

                         Standard orientation:
 ---------------------------------------------------------------------
 Center     Atomic      Atomic             Coordinates (Angstroms)
 Number     Number       Type             X           Y           Z
 ---------------------------------------------------------------------
      1          8           0        0.000000    0.000000    1.266888
      2          8           0        0.000000    0.000000    2.619268
      3          8           0        0.000000    0.000000   -2.619268
      4          8           0        0.000000    0.000000   -1.266888
 ---------------------------------------------------------------------

 SCF Done:  E(ROHF) =  -298.987556871     A.U. after   12 cycles
 E2 =    -0.1460423871D+01 EUMP2 =    -0.30044798074226D+03
 CCSD(T)
 CCSD(T)= -0.30022974987D+03

 Unable to determine electronic state:  an orbital has unidentified symmetry.
 Alpha  occ. eigenvalues --  -20.50123 -20.50121 -20.44905 -20.44904  -1.29035
 Alpha  occ. eigenvalues --   -1.28675  -0.91375  -0.89616  -0.48025  -0.47461
 Alpha  occ. eigenvalues --   -0.44948  -0.41304  -0.39744  -0.38128  -0.26492
 Alpha  occ. eigenvalues --   -0.25771  -0.07888
 Alpha virt. eigenvalues --    0.08345   0.50092   0.56908   0.90212   0.92019
 Alpha virt. eigenvalues --    0.92536   0.94442   0.95424   0.96243   0.97139
 Alpha virt. eigenvalues --    0.99676   1.01665   1.11100   1.13080   1.13267

 Mulliken charges and spin densities:
               1          2
     1  O   -0.152494   0.321259
     2  O   -0.347506   0.178741
     3  O   -0.347506   0.178741
     4  O   -0.152494   0.321259
 Sum of Mulliken charges =  -1.00000   1.00000

 Dipole moment (field-independent basis, Debye):
    X=             -0.0000    Y=             -0.0000    Z=             -0.0000  Tot=              0.0000
 Quadrupole moment (field-independent basis, Debye-Ang):
   XX=            -22.5535   YY=            -23.1308   ZZ=            -48.1694
   XY=              0.0000   XZ=              0.0000   YZ=              0.0000

 16851\CCSD=-300.104951\CCSD(T)=-300.2297499\RMSD=3.111e-10\PG=D*H [C*(
 Normal termination of Gaussian 16 at Sat Jan 14 21:04:11 2023.
