 Gaussian 16, Revision A.03,
 Gaussian 16:  ES64L-G16RevA.03 25-Dec-2016

 ---------------------------------------------------------------
 #p ROCCSD(T)/cc-pVTZ Guess=Read SCF=(VeryTight,CDIIS,VShift=10)
 ---------------------------------------------------------------

 --------
 O2_O2_13
 --------
 Symbolic Z-matrix:
 Charge = -1 Multiplicity = 2

                         Standard orientation:
 ---------------------------------------------------------------------
 Center     Atomic      Atomic             Coordinates (Angstroms)
 Number     Number       Type             X           Y           Z
 ---------------------------------------------------------------------
      1          8           0        0.000000    0.000000    0.884606
      2          8           0        0.000000    0.000000    2.236987
      3          8           0        0.000000    0.000000   -2.236987
      4          8           0        0.000000    0.000000   -0.884606
 ---------------------------------------------------------------------

 SCF Done:  E(ROHF) =  -299.019444711     A.U. after    9 cycles
 E2 =    -0.1271012487D+01 EUMP2 =    -0.30029045719764D+03
 CCSD(T)
 CCSD(T)= -0.30021270592D+03

 Unable to determine electronic state:  an orbital has unidentified symmetry.
 Alpha  occ. eigenvalues --  -20.51447 -20.51442 -20.40913 -20.40913  -1.30218
 Alpha  occ. eigenvalues --   -1.26908  -0.95447  -0.84882  -0.49695  -0.49002
 Alpha  occ. eigenvalues --   -0.45654  -0.41027  -0.35439  -0.32882  -0.26031
 Alpha  occ. eigenvalues --   -0.22858  -0.10825
 Alpha virt. eigenvalues --    0.14285   0.51922   0.62474   0.91180   0.91475
 Alpha virt. eigenvalues --    0.93420   0.94041   0.97495   0.99101   1.02234
 Alpha virt. eigenvalues --    1.04257   1.11754   1.12284   1.17487   1.19795

 Mulliken charges and spin densities:
               1          2
     1  O   -0.053990   0.360659
     2  O   -0.446010   0.139341
     3  O   -0.446010   0.139341
     4  O   -0.053990   0.360659
 Sum of Mulliken charges =  -1.00000   1.00000

 Dipole moment (field-independent basis, Debye):
    X=             -0.0000    Y=              0.0000    Z=              0.0000  Tot=              0.0000
 Quadrupole moment (field-independent basis, Debye-Ang):
   XX=            -22.5858   YY=            -23.1083   ZZ=            -44.2924
   XY=              0.0000   XZ=              0.0000   YZ=              0.0000

 19203\CCSD=-300.1103686\CCSD(T)=-300.2127059\RMSD=9.621e-09\PG=D*H [C*
 Normal termination of Gaussian 16 at Sat Jan 14 19:43:30 2023.
