 Gaussian 16, Revision A.03,
 Gaussian 16:  ES64L-G16RevA.03 25-Dec-2016

 ---------------------------------------------------------------
 #p ROCCSD(T)/cc-pVTZ Guess=Read SCF=(VeryTight,CDIIS,VShift=10)
 ---------------------------------------------------------------

 ---------
 O2_O2_209
 ---------
 Symbolic Z-matrix:
 Charge = -1 Multiplicity = 2

                         Standard orientation:
 ---------------------------------------------------------------------
 Center     Atomic      Atomic             Coordinates (Angstroms)
 Number     Number       Type             X           Y           Z
 ---------------------------------------------------------------------
      1          8           0        0.000000    0.000000    2.272148
      2          8           0        0.000000    0.000000    3.624528
      3          8           0        0.000000    0.000000   -3.624528
      4          8           0        0.000000    0.000000   -2.272148
 ---------------------------------------------------------------------

 SCF Done:  E(ROHF) =  -299.131321494     A.U. after    8 cycles
 E2 =    -0.1046285830D+01 EUMP2 =    -0.30017760732466D+03
 CCSD(T)
 CCSD(T)= -0.30018256119D+03

 Unable to determine electronic state:  an orbital has unidentified symmetry.
 Alpha  occ. eigenvalues --  -20.48244 -20.48244 -20.47226 -20.47226  -1.29736
 Alpha  occ. eigenvalues --   -1.29730  -0.91740  -0.91689  -0.47053  -0.47049
 Alpha  occ. eigenvalues --   -0.44483  -0.44424  -0.41908  -0.41631  -0.25878
 Alpha  occ. eigenvalues --   -0.25869  -0.07622
 Alpha virt. eigenvalues --    0.01688   0.49866   0.51075   0.89004   0.91587
 Alpha virt. eigenvalues --    0.93054   0.93126   0.93192   0.93264   0.95728
 Alpha virt. eigenvalues --    0.98094   1.02284   1.02491   1.02499   1.02702

 Mulliken charges and spin densities:
               1          2
     1  O   -0.216437   0.263127
     2  O   -0.283563   0.236873
     3  O   -0.283563   0.236873
     4  O   -0.216437   0.263127
 Sum of Mulliken charges =  -1.00000   1.00000

 Dipole moment (field-independent basis, Debye):
    X=             -0.0000    Y=             -0.0000    Z=              0.0000  Tot=              0.0000
 Quadrupole moment (field-independent basis, Debye-Ang):
   XX=            -21.4448   YY=            -23.7630   ZZ=            -69.8014
   XY=              0.0000   XZ=              0.0000   YZ=              0.0000

 365797\CCSD=-300.1279258\CCSD(T)=-300.1825612\RMSD=1.554e-09\PG=D*H [C
 Normal termination of Gaussian 16 at Sun Jan 15 00:25:19 2023.
