 Gaussian 16, Revision A.03,
 Gaussian 16:  ES64L-G16RevA.03 25-Dec-2016

 ---------------------------------------------------------------
 #p ROCCSD(T)/cc-pVTZ Guess=Read SCF=(VeryTight,CDIIS,VShift=10)
 ---------------------------------------------------------------

 --------
 O2_O2_64
 --------
 Symbolic Z-matrix:
 Charge = -1 Multiplicity = 2

                         Standard orientation:
 ---------------------------------------------------------------------
 Center     Atomic      Atomic             Coordinates (Angstroms)
 Number     Number       Type             X           Y           Z
 ---------------------------------------------------------------------
      1          8           0        0.000000    0.000000    1.245650
      2          8           0        0.000000    0.000000    2.598030
      3          8           0        0.000000    0.000000   -2.598030
      4          8           0        0.000000    0.000000   -1.245650
 ---------------------------------------------------------------------

 SCF Done:  E(ROHF) =  -298.989907593     A.U. after   12 cycles
 E2 =    -0.1449605636D+01 EUMP2 =    -0.30043951322949D+03
 CCSD(T)
 CCSD(T)= -0.30023003820D+03

 Unable to determine electronic state:  an orbital has unidentified symmetry.
 Alpha  occ. eigenvalues --  -20.50175 -20.50173 -20.44767 -20.44767  -1.29021
 Alpha  occ. eigenvalues --   -1.28618  -0.91420  -0.89480  -0.48027  -0.47400
 Alpha  occ. eigenvalues --   -0.45046  -0.41088  -0.39743  -0.38033  -0.26464
 Alpha  occ. eigenvalues --   -0.25673  -0.07982
 Alpha virt. eigenvalues --    0.08565   0.50225   0.57099   0.90131   0.91974
 Alpha virt. eigenvalues --    0.92488   0.94519   0.95522   0.97232   0.97465
 Alpha virt. eigenvalues --    0.99706   1.01686   1.11516   1.13074   1.13687

 Mulliken charges and spin densities:
               1          2
     1  O   -0.149329   0.323097
     2  O   -0.350671   0.176903
     3  O   -0.350671   0.176903
     4  O   -0.149329   0.323097
 Sum of Mulliken charges =  -1.00000   1.00000

 Dipole moment (field-independent basis, Debye):
    X=             -0.0000    Y=              0.0000    Z=             -0.0000  Tot=              0.0000
 Quadrupole moment (field-independent basis, Debye-Ang):
   XX=            -22.5598   YY=            -23.1340   ZZ=            -47.8423
   XY=              0.0000   XZ=              0.0000   YZ=              0.0000

 502\CCSD=-300.1061676\CCSD(T)=-300.2300382\RMSD=3.413e-10\PG=D*H [C*(O
 Normal termination of Gaussian 16 at Sat Jan 14 20:59:10 2023.
