 Gaussian 16, Revision A.03,
 Gaussian 16:  ES64L-G16RevA.03 25-Dec-2016

 ---------------------------------------------------------------
 #p ROCCSD(T)/cc-pVTZ Guess=Read SCF=(VeryTight,CDIIS,VShift=10)
 ---------------------------------------------------------------

 ---------
 O2_O2_224
 ---------
 Symbolic Z-matrix:
 Charge = -1 Multiplicity = 2

                         Standard orientation:
 ---------------------------------------------------------------------
 Center     Atomic      Atomic             Coordinates (Angstroms)
 Number     Number       Type             X           Y           Z
 ---------------------------------------------------------------------
      1          8           0        0.000000    0.000000    2.378337
      2          8           0        0.000000    0.000000    3.730717
      3          8           0        0.000000    0.000000   -3.730717
      4          8           0        0.000000    0.000000   -2.378337
 ---------------------------------------------------------------------

 SCF Done:  E(ROHF) =  -299.131215162     A.U. after    8 cycles
 E2 =    -0.1046555548D+01 EUMP2 =    -0.30017777071020D+03
 CCSD(T)
 CCSD(T)= -0.30018244077D+03

 Unable to determine electronic state:  an orbital has unidentified symmetry.
 Alpha  occ. eigenvalues --  -20.48367 -20.48366 -20.47420 -20.47420  -1.29891
 Alpha  occ. eigenvalues --   -1.29886  -0.91896  -0.91854  -0.47208  -0.47206
 Alpha  occ. eigenvalues --   -0.44634  -0.44599  -0.42049  -0.41802  -0.26035
 Alpha  occ. eigenvalues --   -0.26030  -0.07605
 Alpha virt. eigenvalues --    0.01351   0.49944   0.50687   0.89463   0.91059
 Alpha virt. eigenvalues --    0.92920   0.92957   0.93057   0.93094   0.95895
 Alpha virt. eigenvalues --    0.97217   1.02177   1.02288   1.02383   1.02492

 Mulliken charges and spin densities:
               1          2
     1  O   -0.218696   0.262289
     2  O   -0.281304   0.237711
     3  O   -0.281304   0.237711
     4  O   -0.218696   0.262289
 Sum of Mulliken charges =  -1.00000   1.00000

 Dipole moment (field-independent basis, Debye):
    X=             -0.0000    Y=              0.0000    Z=              0.0000  Tot=              0.0000
 Quadrupole moment (field-independent basis, Debye-Ang):
   XX=            -21.4437   YY=            -23.7624   ZZ=            -72.7690
   XY=              0.0000   XZ=              0.0000   YZ=              0.0000

 364312\CCSD=-300.1278055\CCSD(T)=-300.1824408\RMSD=1.565e-09\PG=D*H [C
 Normal termination of Gaussian 16 at Sun Jan 15 00:44:57 2023.
