 Gaussian 16, Revision A.03,
 Gaussian 16:  ES64L-G16RevA.03 25-Dec-2016

 ---------------------------------------------------------------
 #p ROCCSD(T)/cc-pVTZ Guess=Read SCF=(VeryTight,CDIIS,VShift=10)
 ---------------------------------------------------------------

 ---------
 O2_O2_236
 ---------
 Symbolic Z-matrix:
 Charge = -1 Multiplicity = 2

                         Standard orientation:
 ---------------------------------------------------------------------
 Center     Atomic      Atomic             Coordinates (Angstroms)
 Number     Number       Type             X           Y           Z
 ---------------------------------------------------------------------
      1          8           0        0.000000    0.000000    2.463288
      2          8           0        0.000000    0.000000    3.815668
      3          8           0        0.000000    0.000000   -3.815668
      4          8           0        0.000000    0.000000   -2.463288
 ---------------------------------------------------------------------

 SCF Done:  E(ROHF) =  -299.131151917     A.U. after    8 cycles
 E2 =    -0.1046757254D+01 EUMP2 =    -0.30017790917043D+03
 CCSD(T)
 CCSD(T)= -0.30018237042D+03

 Unable to determine electronic state:  an orbital has unidentified symmetry.
 Alpha  occ. eigenvalues --  -20.48460 -20.48460 -20.47565 -20.47565  -1.30008
 Alpha  occ. eigenvalues --   -1.30005  -0.92014  -0.91978  -0.47325  -0.47324
 Alpha  occ. eigenvalues --   -0.44751  -0.44728  -0.42156  -0.41930  -0.26153
 Alpha  occ. eigenvalues --   -0.26150  -0.07594
 Alpha virt. eigenvalues --    0.01100   0.49950   0.50435   0.89657   0.90698
 Alpha virt. eigenvalues --    0.92812   0.92834   0.92950   0.92971   0.95962
 Alpha virt. eigenvalues --    0.96766   1.02081   1.02144   1.02287   1.02349

 Mulliken charges and spin densities:
               1          2
     1  O   -0.220351   0.261664
     2  O   -0.279649   0.238336
     3  O   -0.279649   0.238336
     4  O   -0.220351   0.261664
 Sum of Mulliken charges =  -1.00000   1.00000

 Dipole moment (field-independent basis, Debye):
    X=             -0.0000    Y=              0.0000    Z=              0.0000  Tot=              0.0000
 Quadrupole moment (field-independent basis, Debye-Ang):
   XX=            -21.4431   YY=            -23.7620   ZZ=            -75.2246
   XY=              0.0000   XZ=              0.0000   YZ=              0.0000

 363396\CCSD=-300.1277341\CCSD(T)=-300.1823704\RMSD=1.508e-09\PG=D*H [C
 Normal termination of Gaussian 16 at Sun Jan 15 01:00:51 2023.
