 Gaussian 16, Revision A.03,
 Gaussian 16:  ES64L-G16RevA.03 25-Dec-2016

 ---------------------------------------------------------------
 #p ROCCSD(T)/cc-pVTZ Guess=Read SCF=(VeryTight,CDIIS,VShift=10)
 ---------------------------------------------------------------

 --------
 O2_O2_61
 --------
 Symbolic Z-matrix:
 Charge = -1 Multiplicity = 2

                         Standard orientation:
 ---------------------------------------------------------------------
 Center     Atomic      Atomic             Coordinates (Angstroms)
 Number     Number       Type             X           Y           Z
 ---------------------------------------------------------------------
      1          8           0        0.000000    0.000000    1.224412
      2          8           0        0.000000    0.000000    2.576792
      3          8           0        0.000000    0.000000   -2.576792
      4          8           0        0.000000    0.000000   -1.224412
 ---------------------------------------------------------------------

 SCF Done:  E(ROHF) =  -298.992324820     A.U. after   12 cycles
 E2 =    -0.1438755291D+01 EUMP2 =    -0.30043108011051D+03
 CCSD(T)
 CCSD(T)= -0.30023031366D+03

 Unable to determine electronic state:  an orbital has unidentified symmetry.
 Alpha  occ. eigenvalues --  -20.50230 -20.50229 -20.44624 -20.44624  -1.29011
 Alpha  occ. eigenvalues --   -1.28558  -0.91475  -0.89335  -0.48032  -0.47337
 Alpha  occ. eigenvalues --   -0.45155  -0.40857  -0.39746  -0.37933  -0.26436
 Alpha  occ. eigenvalues --   -0.25571  -0.08081
 Alpha virt. eigenvalues --    0.08794   0.50355   0.57297   0.90062   0.91932
 Alpha virt. eigenvalues --    0.92454   0.94527   0.95621   0.97326   0.98807
 Alpha virt. eigenvalues --    0.99745   1.01718   1.11930   1.13065   1.13971

 Mulliken charges and spin densities:
               1          2
     1  O   -0.145962   0.324988
     2  O   -0.354038   0.175012
     3  O   -0.354038   0.175012
     4  O   -0.145962   0.324988
 Sum of Mulliken charges =  -1.00000   1.00000

 Dipole moment (field-independent basis, Debye):
    X=             -0.0000    Y=             -0.0000    Z=             -0.0000  Tot=              0.0000
 Quadrupole moment (field-independent basis, Debye-Ang):
   XX=            -22.5661   YY=            -23.1371   ZZ=            -47.5243
   XY=              0.0000   XZ=              0.0000   YZ=              0.0000

 21234\CCSD=-300.1074083\CCSD(T)=-300.2303137\RMSD=4.174e-10\PG=D*H [C*
 Normal termination of Gaussian 16 at Sat Jan 14 20:54:42 2023.
