 Gaussian 16, Revision A.03,
 Gaussian 16:  ES64L-G16RevA.03 25-Dec-2016

 ---------------------------------------------------------------
 #p ROCCSD(T)/cc-pVTZ Guess=Read SCF=(VeryTight,CDIIS,VShift=10)
 ---------------------------------------------------------------

 ---------
 O2_O2_175
 ---------
 Symbolic Z-matrix:
 Charge = -1 Multiplicity = 2

                         Standard orientation:
 ---------------------------------------------------------------------
 Center     Atomic      Atomic             Coordinates (Angstroms)
 Number     Number       Type             X           Y           Z
 ---------------------------------------------------------------------
      1          8           0        0.000000    0.000000    2.031452
      2          8           0        0.000000    0.000000    3.383832
      3          8           0        0.000000    0.000000   -3.383832
      4          8           0        0.000000    0.000000   -2.031452
 ---------------------------------------------------------------------

 SCF Done:  E(ROHF) =  -299.131756623     A.U. after    8 cycles
 E2 =    -0.1045603661D+01 EUMP2 =    -0.30017736028468D+03
 CCSD(T)
 CCSD(T)= -0.30018307711D+03

 Unable to determine electronic state:  an orbital has unidentified symmetry.
 Alpha  occ. eigenvalues --  -20.47947 -20.47946 -20.46732 -20.46731  -1.29346
 Alpha  occ. eigenvalues --   -1.29334  -0.91353  -0.91263  -0.46667  -0.46653
 Alpha  occ. eigenvalues --   -0.44127  -0.43953  -0.41561  -0.41189  -0.25490
 Alpha  occ. eigenvalues --   -0.25457  -0.07683
 Alpha virt. eigenvalues --    0.02567   0.49318   0.52283   0.86712   0.92709
 Alpha virt. eigenvalues --    0.93331   0.93467   0.93608   0.93746   0.95173
 Alpha virt. eigenvalues --    1.02383   1.02583   1.02598   1.03221   1.03415

 Mulliken charges and spin densities:
               1          2
     1  O   -0.210369   0.265257
     2  O   -0.289631   0.234743
     3  O   -0.289631   0.234743
     4  O   -0.210369   0.265257
 Sum of Mulliken charges =  -1.00000   1.00000

 Dipole moment (field-independent basis, Debye):
    X=             -0.0000    Y=             -0.0000    Z=              0.0000  Tot=              0.0000
 Quadrupole moment (field-independent basis, Debye-Ang):
   XX=            -21.4491   YY=            -23.7649   ZZ=            -63.4940
   XY=              0.0000   XZ=              0.0000   YZ=              0.0000

 371608\CCSD=-300.1284289\CCSD(T)=-300.1830771\RMSD=1.953e-09\PG=D*H [C
 Normal termination of Gaussian 16 at Sat Jan 14 23:40:06 2023.
