 Gaussian 16, Revision A.03,
 Gaussian 16:  ES64L-G16RevA.03 25-Dec-2016

 ---------------------------------------------------------------
 #p ROCCSD(T)/cc-pVTZ Guess=Read SCF=(VeryTight,CDIIS,VShift=10)
 ---------------------------------------------------------------

 ---------
 O2_O2_246
 ---------
 Symbolic Z-matrix:
 Charge = -1 Multiplicity = 2

                         Standard orientation:
 ---------------------------------------------------------------------
 Center     Atomic      Atomic             Coordinates (Angstroms)
 Number     Number       Type             X           Y           Z
 ---------------------------------------------------------------------
      1          8           0        0.000000    0.000000    2.534081
      2          8           0        0.000000    0.000000    3.886461
      3          8           0        0.000000    0.000000   -3.886461
      4          8           0        0.000000    0.000000   -2.534081
 ---------------------------------------------------------------------

 SCF Done:  E(ROHF) =  -299.131109641     A.U. after    8 cycles
 E2 =    -0.1046916234D+01 EUMP2 =    -0.30017802587546D+03
 CCSD(T)
 CCSD(T)= -0.30018232410D+03

 Unable to determine electronic state:  an orbital has unidentified symmetry.
 Alpha  occ. eigenvalues --  -20.48536 -20.48535 -20.47679 -20.47679  -1.30102
 Alpha  occ. eigenvalues --   -1.30098  -0.92108  -0.92076  -0.47418  -0.47417
 Alpha  occ. eigenvalues --   -0.44845  -0.44829  -0.42242  -0.42032  -0.26248
 Alpha  occ. eigenvalues --   -0.26246  -0.07587
 Alpha virt. eigenvalues --    0.00901   0.49927   0.50259   0.89736   0.90446
 Alpha virt. eigenvalues --    0.92725   0.92738   0.92863   0.92876   0.95975
 Alpha virt. eigenvalues --    0.96496   1.01998   1.02037   1.02204   1.02242

 Mulliken charges and spin densities:
               1          2
     1  O   -0.221635   0.261175
     2  O   -0.278365   0.238825
     3  O   -0.278365   0.238825
     4  O   -0.221635   0.261175
 Sum of Mulliken charges =  -1.00000   1.00000

 Dipole moment (field-independent basis, Debye):
    X=             -0.0000    Y=              0.0000    Z=             -0.0000  Tot=              0.0000
 Quadrupole moment (field-independent basis, Debye-Ang):
   XX=            -21.4427   YY=            -23.7617   ZZ=            -77.3263
   XY=              0.0000   XZ=              0.0000   YZ=              0.0000

 362763\CCSD=-300.1276865\CCSD(T)=-300.1823241\RMSD=1.432e-09\PG=D*H [C
 Normal termination of Gaussian 16 at Sun Jan 15 01:14:54 2023.
