 Gaussian 16, Revision A.03,
 Gaussian 16:  ES64L-G16RevA.03 25-Dec-2016

 ---------------------------------------------------------------
 #p ROCCSD(T)/cc-pVTZ Guess=Read SCF=(VeryTight,CDIIS,VShift=10)
 ---------------------------------------------------------------

 ---------
 O2_O2_222
 ---------
 Symbolic Z-matrix:
 Charge = -1 Multiplicity = 2

                         Standard orientation:
 ---------------------------------------------------------------------
 Center     Atomic      Atomic             Coordinates (Angstroms)
 Number     Number       Type             X           Y           Z
 ---------------------------------------------------------------------
      1          8           0        0.000000    0.000000    2.364178
      2          8           0        0.000000    0.000000    3.716558
      3          8           0        0.000000    0.000000   -3.716558
      4          8           0        0.000000    0.000000   -2.364178
 ---------------------------------------------------------------------

 SCF Done:  E(ROHF) =  -299.131227361     A.U. after    8 cycles
 E2 =    -0.1046520728D+01 EUMP2 =    -0.30017774808844D+03
 CCSD(T)
 CCSD(T)= -0.30018245445D+03

 Unable to determine electronic state:  an orbital has unidentified symmetry.
 Alpha  occ. eigenvalues --  -20.48351 -20.48350 -20.47395 -20.47395  -1.29871
 Alpha  occ. eigenvalues --   -1.29866  -0.91875  -0.91833  -0.47188  -0.47186
 Alpha  occ. eigenvalues --   -0.44614  -0.44577  -0.42031  -0.41780  -0.26014
 Alpha  occ. eigenvalues --   -0.26009  -0.07607
 Alpha virt. eigenvalues --    0.01394   0.49938   0.50734   0.89417   0.91126
 Alpha virt. eigenvalues --    0.92938   0.92978   0.93075   0.93116   0.95878
 Alpha virt. eigenvalues --    0.97310   1.02192   1.02314   1.02399   1.02517

 Mulliken charges and spin densities:
               1          2
     1  O   -0.218408   0.262397
     2  O   -0.281592   0.237603
     3  O   -0.281592   0.237603
     4  O   -0.218408   0.262397
 Sum of Mulliken charges =  -1.00000   1.00000

 Dipole moment (field-independent basis, Debye):
    X=             -0.0000    Y=             -0.0000    Z=              0.0000  Tot=              0.0000
 Quadrupole moment (field-independent basis, Debye-Ang):
   XX=            -21.4439   YY=            -23.7625   ZZ=            -72.3668
   XY=              0.0000   XZ=              0.0000   YZ=              0.0000

 364486\CCSD=-300.1278193\CCSD(T)=-300.1824545\RMSD=1.570e-09\PG=D*H [C
 Normal termination of Gaussian 16 at Sun Jan 15 00:42:17 2023.
