 Gaussian 16, Revision A.03,
 Gaussian 16:  ES64L-G16RevA.03 25-Dec-2016

 ---------------------------------------------------------------
 #p ROCCSD(T)/cc-pVTZ Guess=Read SCF=(VeryTight,CDIIS,VShift=10)
 ---------------------------------------------------------------

 --------
 O2_O2_33
 --------
 Symbolic Z-matrix:
 Charge = -1 Multiplicity = 2

                         Standard orientation:
 ---------------------------------------------------------------------
 Center     Atomic      Atomic             Coordinates (Angstroms)
 Number     Number       Type             X           Y           Z
 ---------------------------------------------------------------------
      1          8           0        0.000000    0.000000    1.026192
      2          8           0        0.000000    0.000000    2.378572
      3          8           0        0.000000    0.000000   -2.378572
      4          8           0        0.000000    0.000000   -1.026192
 ---------------------------------------------------------------------

 SCF Done:  E(ROHF) =  -299.015441756     A.U. after    8 cycles
 E2 =    -0.1337531808D+01 EUMP2 =    -0.30035297356408D+03
 CCSD(T)
 CCSD(T)= -0.30022939185D+03

 Unable to determine electronic state:  an orbital has unidentified symmetry.
 Alpha  occ. eigenvalues --  -20.50864 -20.50861 -20.42880 -20.42880  -1.29199
 Alpha  occ. eigenvalues --   -1.27810  -0.92787  -0.87370  -0.48449  -0.46861
 Alpha  occ. eigenvalues --   -0.46562  -0.40055  -0.37564  -0.36741  -0.26206
 Alpha  occ. eigenvalues --   -0.24305  -0.09369
 Alpha virt. eigenvalues --    0.11487   0.51439   0.59648   0.90262   0.91629
 Alpha virt. eigenvalues --    0.92984   0.93999   0.96605   0.98257   1.00698
 Alpha virt. eigenvalues --    1.02654   1.11226   1.12795   1.15501   1.16106

 Mulliken charges and spin densities:
               1          2
     1  O   -0.102651   0.345002
     2  O   -0.397349   0.154998
     3  O   -0.397349   0.154998
     4  O   -0.102651   0.345002
 Sum of Mulliken charges =  -1.00000   1.00000

 Dipole moment (field-independent basis, Debye):
    X=             -0.0000    Y=             -0.0000    Z=             -0.0000  Tot=              0.0000
 Quadrupole moment (field-independent basis, Debye-Ang):
   XX=            -22.6109   YY=            -23.1510   ZZ=            -45.1143
   XY=              0.0000   XZ=              0.0000   YZ=              0.0000

 10958\CCSD=-300.1174094\CCSD(T)=-300.2293919\RMSD=9.417e-09\PG=D*H [C*
 Normal termination of Gaussian 16 at Sat Jan 14 20:12:53 2023.
