 Gaussian 16, Revision A.03,
 Gaussian 16:  ES64L-G16RevA.03 25-Dec-2016

 ---------------------------------------------------------------
 #p ROCCSD(T)/cc-pVTZ Guess=Read SCF=(VeryTight,CDIIS,VShift=10)
 ---------------------------------------------------------------

 --------
 O2_O2_63
 --------
 Symbolic Z-matrix:
 Charge = -1 Multiplicity = 2

                         Standard orientation:
 ---------------------------------------------------------------------
 Center     Atomic      Atomic             Coordinates (Angstroms)
 Number     Number       Type             X           Y           Z
 ---------------------------------------------------------------------
      1          8           0        0.000000    0.000000    1.238571
      2          8           0        0.000000    0.000000    2.590951
      3          8           0        0.000000    0.000000   -2.590951
      4          8           0        0.000000    0.000000   -1.238571
 ---------------------------------------------------------------------

 SCF Done:  E(ROHF) =  -298.990706233     A.U. after   12 cycles
 E2 =    -0.1445992300D+01 EUMP2 =    -0.30043669853356D+03
 CCSD(T)
 CCSD(T)= -0.30023013185D+03

 Unable to determine electronic state:  an orbital has unidentified symmetry.
 Alpha  occ. eigenvalues --  -20.50193 -20.50191 -20.44720 -20.44720  -1.29017
 Alpha  occ. eigenvalues --   -1.28598  -0.91437  -0.89433  -0.48028  -0.47380
 Alpha  occ. eigenvalues --   -0.45081  -0.41013  -0.39744  -0.38000  -0.26454
 Alpha  occ. eigenvalues --   -0.25640  -0.08014
 Alpha virt. eigenvalues --    0.08640   0.50269   0.57164   0.90106   0.91960
 Alpha virt. eigenvalues --    0.92475   0.94526   0.95555   0.97264   0.97902
 Alpha virt. eigenvalues --    0.99718   1.01696   1.11654   1.13071   1.13827

 Mulliken charges and spin densities:
               1          2
     1  O   -0.148230   0.323721
     2  O   -0.351770   0.176279
     3  O   -0.351770   0.176279
     4  O   -0.148230   0.323721
 Sum of Mulliken charges =  -1.00000   1.00000

 Dipole moment (field-independent basis, Debye):
    X=             -0.0000    Y=              0.0000    Z=             -0.0000  Tot=              0.0000
 Quadrupole moment (field-independent basis, Debye-Ang):
   XX=            -22.5619   YY=            -23.1350   ZZ=            -47.7353
   XY=              0.0000   XZ=              0.0000   YZ=              0.0000

 24636\CCSD=-300.1065789\CCSD(T)=-300.2301319\RMSD=3.614e-10\PG=D*H [C*
 Normal termination of Gaussian 16 at Sat Jan 14 20:57:41 2023.
