 Gaussian 16, Revision A.03,
 Gaussian 16:  ES64L-G16RevA.03 25-Dec-2016

 ---------------------------------------------------------------
 #p ROCCSD(T)/cc-pVTZ Guess=Read SCF=(VeryTight,CDIIS,VShift=10)
 ---------------------------------------------------------------

 ---------
 O2_O2_216
 ---------
 Symbolic Z-matrix:
 Charge = -1 Multiplicity = 2

                         Standard orientation:
 ---------------------------------------------------------------------
 Center     Atomic      Atomic             Coordinates (Angstroms)
 Number     Number       Type             X           Y           Z
 ---------------------------------------------------------------------
      1          8           0        0.000000    0.000000    2.321703
      2          8           0        0.000000    0.000000    3.674083
      3          8           0        0.000000    0.000000   -3.674083
      4          8           0        0.000000    0.000000   -2.321703
 ---------------------------------------------------------------------

 SCF Done:  E(ROHF) =  -299.131267373     A.U. after    8 cycles
 E2 =    -0.1046414164D+01 EUMP2 =    -0.30017768153707D+03
 CCSD(T)
 CCSD(T)= -0.30018249958D+03

 Unable to determine electronic state:  an orbital has unidentified symmetry.
 Alpha  occ. eigenvalues --  -20.48302 -20.48302 -20.47318 -20.47318  -1.29810
 Alpha  occ. eigenvalues --   -1.29804  -0.91813  -0.91768  -0.47126  -0.47124
 Alpha  occ. eigenvalues --   -0.44554  -0.44508  -0.41975  -0.41713  -0.25952
 Alpha  occ. eigenvalues --   -0.25945  -0.07613
 Alpha virt. eigenvalues --    0.01527   0.49913   0.50883   0.89253   0.91333
 Alpha virt. eigenvalues --    0.92992   0.93044   0.93129   0.93182   0.95817
 Alpha virt. eigenvalues --    0.97630   1.02236   1.02395   1.02443   1.02598

 Mulliken charges and spin densities:
               1          2
     1  O   -0.217519   0.262728
     2  O   -0.282481   0.237272
     3  O   -0.282481   0.237272
     4  O   -0.217519   0.262728
 Sum of Mulliken charges =  -1.00000   1.00000

 Dipole moment (field-independent basis, Debye):
    X=             -0.0000    Y=             -0.0000    Z=             -0.0000  Tot=              0.0000
 Quadrupole moment (field-independent basis, Debye-Ang):
   XX=            -21.4443   YY=            -23.7627   ZZ=            -71.1722
   XY=              0.0000   XZ=              0.0000   YZ=              0.0000

 365048\CCSD=-300.1278645\CCSD(T)=-300.1824996\RMSD=1.572e-09\PG=D*H [C
 Normal termination of Gaussian 16 at Sun Jan 15 00:34:23 2023.
