 Gaussian 16, Revision A.03,
 Gaussian 16:  ES64L-G16RevA.03 25-Dec-2016

 ---------------------------------------------------------------
 #p ROCCSD(T)/cc-pVTZ Guess=Read SCF=(VeryTight,CDIIS,VShift=10)
 ---------------------------------------------------------------

 ---------
 O2_O2_201
 ---------
 Symbolic Z-matrix:
 Charge = -1 Multiplicity = 2

                         Standard orientation:
 ---------------------------------------------------------------------
 Center     Atomic      Atomic             Coordinates (Angstroms)
 Number     Number       Type             X           Y           Z
 ---------------------------------------------------------------------
      1          8           0        0.000000    0.000000    2.215513
      2          8           0        0.000000    0.000000    3.567893
      3          8           0        0.000000    0.000000   -3.567893
      4          8           0        0.000000    0.000000   -2.215513
 ---------------------------------------------------------------------

 SCF Done:  E(ROHF) =  -299.131395166     A.U. after    8 cycles
 E2 =    -0.1046133905D+01 EUMP2 =    -0.30017752907066D+03
 CCSD(T)
 CCSD(T)= -0.30018264618D+03

 Unable to determine electronic state:  an orbital has unidentified symmetry.
 Alpha  occ. eigenvalues --  -20.48177 -20.48176 -20.47117 -20.47117  -1.29649
 Alpha  occ. eigenvalues --   -1.29642  -0.91653  -0.91596  -0.46967  -0.46962
 Alpha  occ. eigenvalues --   -0.44400  -0.44323  -0.41830  -0.41534  -0.25791
 Alpha  occ. eigenvalues --   -0.25778  -0.07633
 Alpha virt. eigenvalues --    0.01879   0.49785   0.51319   0.88630   0.91882
 Alpha virt. eigenvalues --    0.93125   0.93225   0.93262   0.93363   0.95606
 Alpha virt. eigenvalues --    0.98775   1.02330   1.02538   1.02633   1.02834

 Mulliken charges and spin densities:
               1          2
     1  O   -0.215136   0.263601
     2  O   -0.284864   0.236399
     3  O   -0.284864   0.236399
     4  O   -0.215136   0.263601
 Sum of Mulliken charges =  -1.00000   1.00000

 Dipole moment (field-independent basis, Debye):
    X=             -0.0000    Y=              0.0000    Z=             -0.0000  Tot=              0.0000
 Quadrupole moment (field-independent basis, Debye-Ang):
   XX=            -21.4456   YY=            -23.7634   ZZ=            -68.2649
   XY=              0.0000   XZ=              0.0000   YZ=              0.0000

 3668\CCSD=-300.1280098\CCSD(T)=-300.1826462\RMSD=1.523e-09\PG=D*H [C*(
 Normal termination of Gaussian 16 at Sun Jan 15 00:14:42 2023.
