 Gaussian 16, Revision A.03,
 Gaussian 16:  ES64L-G16RevA.03 25-Dec-2016

 ---------------------------------------------------------------
 #p ROCCSD(T)/cc-pVTZ Guess=Read SCF=(VeryTight,CDIIS,VShift=10)
 ---------------------------------------------------------------

 ---------
 O2_O2_103
 ---------
 Symbolic Z-matrix:
 Charge = -1 Multiplicity = 2

                         Standard orientation:
 ---------------------------------------------------------------------
 Center     Atomic      Atomic             Coordinates (Angstroms)
 Number     Number       Type             X           Y           Z
 ---------------------------------------------------------------------
      1          8           0        0.000000    0.000000    1.521743
      2          8           0        0.000000    0.000000    2.874123
      3          8           0        0.000000    0.000000   -2.874123
      4          8           0        0.000000    0.000000   -1.521743
 ---------------------------------------------------------------------

 SCF Done:  E(ROHF) =  -298.965284046     A.U. after   11 cycles
 E2 =    -0.1586380663D+01 EUMP2 =    -0.30055166470874D+03
 CCSD(T)
 CCSD(T)= -0.30022697524D+03

 Unable to determine electronic state:  an orbital has unidentified symmetry.
 Alpha  occ. eigenvalues --  -20.49726 -20.49725 -20.46201 -20.46201  -1.29348
 Alpha  occ. eigenvalues --   -1.29250  -0.91335  -0.90769  -0.48228  -0.48064
 Alpha  occ. eigenvalues --   -0.44410  -0.43064  -0.39931  -0.39043  -0.26884
 Alpha  occ. eigenvalues --   -0.26679  -0.07124
 Alpha virt. eigenvalues --    0.06236   0.48534   0.54952   0.85154   0.91519
 Alpha virt. eigenvalues --    0.92696   0.93526   0.94260   0.94771   0.96020
 Alpha virt. eigenvalues --    0.99994   1.02099   1.06496   1.08620   1.12971

 Mulliken charges and spin densities:
               1          2
     1  O   -0.179448   0.303318
     2  O   -0.320552   0.196682
     3  O   -0.320552   0.196682
     4  O   -0.179448   0.303318
 Sum of Mulliken charges =  -1.00000   1.00000

 Dipole moment (field-independent basis, Debye):
    X=             -0.0000    Y=              0.0000    Z=             -0.0000  Tot=              0.0000
 Quadrupole moment (field-independent basis, Debye-Ang):
   XX=            -22.4895   YY=            -23.0974   ZZ=            -52.6634
   XY=              0.0000   XZ=              0.0000   YZ=              0.0000

 128\CCSD=-300.0934778\CCSD(T)=-300.2269752\RMSD=7.127e-09\PG=D*H [C*(O
 Normal termination of Gaussian 16 at Sat Jan 14 21:58:12 2023.
