 Gaussian 16, Revision A.03,
 Gaussian 16:  ES64L-G16RevA.03 25-Dec-2016

 ---------------------------------------------------------------
 #p ROCCSD(T)/cc-pVTZ Guess=Read SCF=(VeryTight,CDIIS,VShift=10)
 ---------------------------------------------------------------

 -------
 O2_O2_4
 -------
 Symbolic Z-matrix:
 Charge = -1 Multiplicity = 2

                         Standard orientation:
 ---------------------------------------------------------------------
 Center     Atomic      Atomic             Coordinates (Angstroms)
 Number     Number       Type             X           Y           Z
 ---------------------------------------------------------------------
      1          8           0        0.000000    0.000000    0.820892
      2          8           0        0.000000    0.000000    2.173273
      3          8           0        0.000000    0.000000   -2.173273
      4          8           0        0.000000    0.000000   -0.820892
 ---------------------------------------------------------------------

 SCF Done:  E(ROHF) =  -299.008031395     A.U. after   12 cycles
 E2 =    -0.1246718353D+01 EUMP2 =    -0.30025474974842D+03
 CCSD(T)
 CCSD(T)= -0.30019249887D+03

 Unable to determine electronic state:  an orbital has unidentified symmetry.
 Alpha  occ. eigenvalues --  -20.51825 -20.51818 -20.39706 -20.39706  -1.31412
 Alpha  occ. eigenvalues --   -1.26344  -0.97482  -0.83328  -0.50899  -0.50193
 Alpha  occ. eigenvalues --   -0.45098  -0.42009  -0.34670  -0.29562  -0.25906
 Alpha  occ. eigenvalues --   -0.21984  -0.11634
 Alpha virt. eigenvalues --    0.15862   0.51890   0.64422   0.91466   0.91517
 Alpha virt. eigenvalues --    0.92964   0.94357   0.97991   0.99579   1.03227
 Alpha virt. eigenvalues --    1.05271   1.11033   1.11937   1.18170   1.20525

 Mulliken charges and spin densities:
               1          2
     1  O   -0.023114   0.367181
     2  O   -0.476886   0.132819
     3  O   -0.476886   0.132819
     4  O   -0.023114   0.367181
 Sum of Mulliken charges =  -1.00000   1.00000

 Dipole moment (field-independent basis, Debye):
    X=             -0.0000    Y=             -0.0000    Z=             -0.0000  Tot=              0.0000
 Quadrupole moment (field-independent basis, Debye-Ang):
   XX=            -22.5388   YY=            -23.0574   ZZ=            -44.3068
   XY=              0.0000   XZ=              0.0000   YZ=              0.0000

 6726\CCSD=-300.0945075\CCSD(T)=-300.1924989\RMSD=7.098e-10\PG=D*H [C*(
 Normal termination of Gaussian 16 at Sat Jan 14 19:30:14 2023.
