 Gaussian 16, Revision A.03,
 Gaussian 16:  ES64L-G16RevA.03 25-Dec-2016

 ---------------------------------------------------------------
 #p ROCCSD(T)/cc-pVTZ Guess=Read SCF=(VeryTight,CDIIS,VShift=10)
 ---------------------------------------------------------------

 --------
 O2_O2_11
 --------
 Symbolic Z-matrix:
 Charge = -1 Multiplicity = 2

                         Standard orientation:
 ---------------------------------------------------------------------
 Center     Atomic      Atomic             Coordinates (Angstroms)
 Number     Number       Type             X           Y           Z
 ---------------------------------------------------------------------
      1          8           0        0.000000    0.000000    0.870447
      2          8           0        0.000000    0.000000    2.222828
      3          8           0        0.000000    0.000000   -2.222828
      4          8           0        0.000000    0.000000   -0.870447
 ---------------------------------------------------------------------

 SCF Done:  E(ROHF) =  -299.017974776     A.U. after   10 cycles
 E2 =    -0.1265157530D+01 EUMP2 =    -0.30028313230599D+03
 CCSD(T)
 CCSD(T)= -0.30020918683D+03

 Unable to determine electronic state:  an orbital has unidentified symmetry.
 Alpha  occ. eigenvalues --  -20.51519 -20.51515 -20.40665 -20.40665  -1.30422
 Alpha  occ. eigenvalues --   -1.26792  -0.95846  -0.84563  -0.49914  -0.49257
 Alpha  occ. eigenvalues --   -0.45540  -0.41202  -0.35279  -0.32228  -0.26008
 Alpha  occ. eigenvalues --   -0.22677  -0.10998
 Alpha virt. eigenvalues --    0.14618   0.51936   0.62858   0.91269   0.91469
 Alpha virt. eigenvalues --    0.93338   0.94131   0.97599   0.99201   1.02438
 Alpha virt. eigenvalues --    1.04467   1.11625   1.12212   1.17651   1.19969

 Mulliken charges and spin densities:
               1          2
     1  O   -0.047757   0.362169
     2  O   -0.452243   0.137831
     3  O   -0.452243   0.137831
     4  O   -0.047757   0.362169
 Sum of Mulliken charges =  -1.00000   1.00000

 Dipole moment (field-independent basis, Debye):
    X=             -0.0000    Y=              0.0000    Z=              0.0000  Tot=              0.0000
 Quadrupole moment (field-independent basis, Debye-Ang):
   XX=            -22.5778   YY=            -23.0992   ZZ=            -44.2706
   XY=              0.0000   XZ=              0.0000   YZ=              0.0000

 5716\CCSD=-300.1078385\CCSD(T)=-300.2091868\RMSD=8.154e-09\PG=D*H [C*(
 Normal termination of Gaussian 16 at Sat Jan 14 19:40:41 2023.
