 Gaussian 16, Revision A.03,
 Gaussian 16:  ES64L-G16RevA.03 25-Dec-2016

 ---------------------------------------------------------------
 #p ROCCSD(T)/cc-pVTZ Guess=Read SCF=(VeryTight,CDIIS,VShift=10)
 ---------------------------------------------------------------

 ---------
 O2_O2_205
 ---------
 Symbolic Z-matrix:
 Charge = -1 Multiplicity = 2

                         Standard orientation:
 ---------------------------------------------------------------------
 Center     Atomic      Atomic             Coordinates (Angstroms)
 Number     Number       Type             X           Y           Z
 ---------------------------------------------------------------------
      1          8           0        0.000000    0.000000    2.243830
      2          8           0        0.000000    0.000000    3.596210
      3          8           0        0.000000    0.000000   -3.596210
      4          8           0        0.000000    0.000000   -2.243830
 ---------------------------------------------------------------------

 SCF Done:  E(ROHF) =  -299.131356603     A.U. after    8 cycles
 E2 =    -0.1046210562D+01 EUMP2 =    -0.30017756716495D+03
 CCSD(T)
 CCSD(T)= -0.30018260154D+03

 Unable to determine electronic state:  an orbital has unidentified symmetry.
 Alpha  occ. eigenvalues --  -20.48211 -20.48210 -20.47172 -20.47172  -1.29693
 Alpha  occ. eigenvalues --   -1.29686  -0.91696  -0.91643  -0.47010  -0.47006
 Alpha  occ. eigenvalues --   -0.44442  -0.44374  -0.41869  -0.41583  -0.25835
 Alpha  occ. eigenvalues --   -0.25824  -0.07627
 Alpha virt. eigenvalues --    0.01782   0.49829   0.51194   0.88829   0.91734
 Alpha virt. eigenvalues --    0.93090   0.93175   0.93227   0.93312   0.95669
 Alpha virt. eigenvalues --    0.98412   1.02308   1.02516   1.02564   1.02766

 Mulliken charges and spin densities:
               1          2
     1  O   -0.215796   0.263362
     2  O   -0.284204   0.236638
     3  O   -0.284204   0.236638
     4  O   -0.215796   0.263362
 Sum of Mulliken charges =  -1.00000   1.00000

 Dipole moment (field-independent basis, Debye):
    X=             -0.0000    Y=              0.0000    Z=             -0.0000  Tot=              0.0000
 Quadrupole moment (field-independent basis, Debye-Ang):
   XX=            -21.4452   YY=            -23.7632   ZZ=            -69.0291
   XY=              0.0000   XZ=              0.0000   YZ=              0.0000

 6277\CCSD=-300.1279658\CCSD(T)=-300.1826015\RMSD=1.538e-09\PG=D*H [C*(
 Normal termination of Gaussian 16 at Sun Jan 15 00:20:02 2023.
