 Gaussian 16, Revision A.03,
 Gaussian 16:  ES64L-G16RevA.03 25-Dec-2016

 ---------------------------------------------------------------
 #p ROCCSD(T)/cc-pVTZ Guess=Read SCF=(VeryTight,CDIIS,VShift=10)
 ---------------------------------------------------------------

 --------
 O2_O2_38
 --------
 Symbolic Z-matrix:
 Charge = -1 Multiplicity = 2

                         Standard orientation:
 ---------------------------------------------------------------------
 Center     Atomic      Atomic             Coordinates (Angstroms)
 Number     Number       Type             X           Y           Z
 ---------------------------------------------------------------------
      1          8           0        0.000000    0.000000    1.061589
      2          8           0        0.000000    0.000000    2.413969
      3          8           0        0.000000    0.000000   -2.413969
      4          8           0        0.000000    0.000000   -1.061589
 ---------------------------------------------------------------------

 SCF Done:  E(ROHF) =  -299.011705915     A.U. after    9 cycles
 E2 =    -0.1355372369D+01 EUMP2 =    -0.30036707828406D+03
 CCSD(T)
 CCSD(T)= -0.30023048257D+03

 Unable to determine electronic state:  an orbital has unidentified symmetry.
 Alpha  occ. eigenvalues --  -20.50737 -20.50735 -20.43259 -20.43259  -1.29107
 Alpha  occ. eigenvalues --   -1.27977  -0.92406  -0.87824  -0.48304  -0.46733
 Alpha  occ. eigenvalues --   -0.46452  -0.39946  -0.38352  -0.36998  -0.26244
 Alpha  occ. eigenvalues --   -0.24583  -0.09083
 Alpha virt. eigenvalues --    0.10917   0.51266   0.59136   0.90105   0.91678
 Alpha virt. eigenvalues --    0.92771   0.94123   0.96415   0.98078   1.00440
 Alpha virt. eigenvalues --    1.02390   1.09765   1.12874   1.14920   1.15027

 Mulliken charges and spin densities:
               1          2
     1  O   -0.112124   0.341163
     2  O   -0.387876   0.158837
     3  O   -0.387876   0.158837
     4  O   -0.112124   0.341163
 Sum of Mulliken charges =  -1.00000   1.00000

 Dipole moment (field-independent basis, Debye):
    X=             -0.0000    Y=             -0.0000    Z=              0.0000  Tot=              0.0000
 Quadrupole moment (field-independent basis, Debye-Ang):
   XX=            -22.6068   YY=            -23.1522   ZZ=            -45.4563
   XY=              0.0000   XZ=              0.0000   YZ=              0.0000

 02472\CCSD=-300.1162931\CCSD(T)=-300.2304826\RMSD=6.782e-09\PG=D*H [C*
 Normal termination of Gaussian 16 at Sat Jan 14 20:20:26 2023.
