 Gaussian 16, Revision A.03,
 Gaussian 16:  ES64L-G16RevA.03 25-Dec-2016

 ---------------------------------------------------------------
 #p ROCCSD(T)/cc-pVTZ Guess=Read SCF=(VeryTight,CDIIS,VShift=10)
 ---------------------------------------------------------------

 ---------
 O2_O2_167
 ---------
 Symbolic Z-matrix:
 Charge = -1 Multiplicity = 2

                         Standard orientation:
 ---------------------------------------------------------------------
 Center     Atomic      Atomic             Coordinates (Angstroms)
 Number     Number       Type             X           Y           Z
 ---------------------------------------------------------------------
      1          8           0        0.000000    0.000000    1.974817
      2          8           0        0.000000    0.000000    3.327197
      3          8           0        0.000000    0.000000   -3.327197
      4          8           0        0.000000    0.000000   -1.974817
 ---------------------------------------------------------------------

 SCF Done:  E(ROHF) =  -299.131918119     A.U. after    8 cycles
 E2 =    -0.1045430001D+01 EUMP2 =    -0.30017734811981D+03
 CCSD(T)
 CCSD(T)= -0.30018327560D+03

 Unable to determine electronic state:  an orbital has unidentified symmetry.
 Alpha  occ. eigenvalues --  -20.47873 -20.47873 -20.46602 -20.46602  -1.29246
 Alpha  occ. eigenvalues --   -1.29232  -0.91256  -0.91150  -0.46568  -0.46550
 Alpha  occ. eigenvalues --   -0.44043  -0.43822  -0.41474  -0.41073  -0.25393
 Alpha  occ. eigenvalues --   -0.25349  -0.07704
 Alpha virt. eigenvalues --    0.02802   0.49125   0.52626   0.85969   0.92886
 Alpha virt. eigenvalues --    0.93380   0.93514   0.93750   0.93887   0.95064
 Alpha virt. eigenvalues --    1.02354   1.02572   1.03472   1.03662   1.04373

 Mulliken charges and spin densities:
               1          2
     1  O   -0.208708   0.265797
     2  O   -0.291292   0.234203
     3  O   -0.291292   0.234203
     4  O   -0.208708   0.265797
 Sum of Mulliken charges =  -1.00000   1.00000

 Dipole moment (field-independent basis, Debye):
    X=             -0.0000    Y=             -0.0000    Z=             -0.0000  Tot=              0.0000
 Quadrupole moment (field-independent basis, Debye-Ang):
   XX=            -21.4507   YY=            -23.7654   ZZ=            -62.0950
   XY=              0.0000   XZ=              0.0000   YZ=              0.0000

 37374\CCSD=-300.1286196\CCSD(T)=-300.1832756\RMSD=2.445e-09\PG=D*H [C*
 Normal termination of Gaussian 16 at Sat Jan 14 23:29:30 2023.
