 Gaussian 16, Revision A.03,
 Gaussian 16:  ES64L-G16RevA.03 25-Dec-2016

 ---------------------------------------------------------------
 #p ROCCSD(T)/cc-pVTZ Guess=Read SCF=(VeryTight,CDIIS,VShift=10)
 ---------------------------------------------------------------

 --------
 O2_O2_78
 --------
 Symbolic Z-matrix:
 Charge = -1 Multiplicity = 2

                         Standard orientation:
 ---------------------------------------------------------------------
 Center     Atomic      Atomic             Coordinates (Angstroms)
 Number     Number       Type             X           Y           Z
 ---------------------------------------------------------------------
      1          8           0        0.000000    0.000000    1.344760
      2          8           0        0.000000    0.000000    2.697140
      3          8           0        0.000000    0.000000   -2.697140
      4          8           0        0.000000    0.000000   -1.344760
 ---------------------------------------------------------------------

 SCF Done:  E(ROHF) =  -298.979577566     A.U. after   11 cycles
 E2 =    -0.1499735451D+01 EUMP2 =    -0.30047931301684D+03
 CCSD(T)
 CCSD(T)= -0.30022869372D+03

 Unable to determine electronic state:  an orbital has unidentified symmetry.
 Alpha  occ. eigenvalues --  -20.49957 -20.49956 -20.45362 -20.45361  -1.29108
 Alpha  occ. eigenvalues --   -1.28870  -0.91283  -0.90049  -0.48052  -0.47666
 Alpha  occ. eigenvalues --   -0.44673  -0.41981  -0.39772  -0.38447  -0.26603
 Alpha  occ. eigenvalues --   -0.26093  -0.07592
 Alpha virt. eigenvalues --    0.07606   0.49591   0.56254   0.90588   0.91546
 Alpha virt. eigenvalues --    0.92212   0.92798   0.94869   0.95065   0.96796
 Alpha virt. eigenvalues --    0.99652   1.01676   1.09585   1.11738   1.13079

 Mulliken charges and spin densities:
               1          2
     1  O   -0.162627   0.314987
     2  O   -0.337373   0.185013
     3  O   -0.337373   0.185013
     4  O   -0.162627   0.314987
 Sum of Mulliken charges =  -1.00000   1.00000

 Dipole moment (field-independent basis, Debye):
    X=             -0.0000    Y=              0.0000    Z=             -0.0000  Tot=              0.0000
 Quadrupole moment (field-independent basis, Debye-Ang):
   XX=            -22.5313   YY=            -23.1194   ZZ=            -49.4390
   XY=              0.0000   XZ=              0.0000   YZ=              0.0000

 \CCSD=-300.1007882\CCSD(T)=-300.2286937\RMSD=9.671e-09\PG=D*H [C*(O1O1
 Normal termination of Gaussian 16 at Sat Jan 14 21:20:46 2023.
