 Gaussian 16, Revision A.03,
 Gaussian 16:  ES64L-G16RevA.03 25-Dec-2016

 ---------------------------------------------------------------
 #p ROCCSD(T)/cc-pVTZ Guess=Read SCF=(VeryTight,CDIIS,VShift=10)
 ---------------------------------------------------------------

 --------
 O2_O2_48
 --------
 Symbolic Z-matrix:
 Charge = -1 Multiplicity = 2

                         Standard orientation:
 ---------------------------------------------------------------------
 Center     Atomic      Atomic             Coordinates (Angstroms)
 Number     Number       Type             X           Y           Z
 ---------------------------------------------------------------------
      1          8           0        0.000000    0.000000    1.132382
      2          8           0        0.000000    0.000000    2.484762
      3          8           0        0.000000    0.000000   -2.484762
      4          8           0        0.000000    0.000000   -1.132382
 ---------------------------------------------------------------------

 SCF Done:  E(ROHF) =  -299.003330244     A.U. after   12 cycles
 E2 =    -0.1391539593D+01 EUMP2 =    -0.30039486983657D+03
 CCSD(T)
 CCSD(T)= -0.30023107702D+03

 Unable to determine electronic state:  an orbital has unidentified symmetry.
 Alpha  occ. eigenvalues --  -20.50500 -20.50498 -20.43919 -20.43919  -1.29015
 Alpha  occ. eigenvalues --   -1.28261  -0.91866  -0.88582  -0.48124  -0.47027
 Alpha  occ. eigenvalues --   -0.45778  -0.39811  -0.39630  -0.37448  -0.26323
 Alpha  occ. eigenvalues --   -0.25064  -0.08589
 Alpha virt. eigenvalues --    0.09904   0.50890   0.58251   0.89950   0.91779
 Alpha virt. eigenvalues --    0.92496   0.94351   0.96058   0.97741   1.00047
 Alpha virt. eigenvalues --    1.01997   1.05187   1.12987   1.13674   1.14260

 Mulliken charges and spin densities:
               1          2
     1  O   -0.128710   0.333788
     2  O   -0.371290   0.166212
     3  O   -0.371290   0.166212
     4  O   -0.128710   0.333788
 Sum of Mulliken charges =  -1.00000   1.00000

 Dipole moment (field-independent basis, Debye):
    X=             -0.0000    Y=             -0.0000    Z=             -0.0000  Tot=              0.0000
 Quadrupole moment (field-independent basis, Debye-Ang):
   XX=            -22.5919   YY=            -23.1485   ZZ=            -46.2658
   XY=              0.0000   XZ=              0.0000   YZ=              0.0000

 73887\CCSD=-300.1128055\CCSD(T)=-300.231077\RMSD=1.184e-09\PG=D*H [C*(
 Normal termination of Gaussian 16 at Sat Jan 14 20:35:20 2023.
