 Gaussian 16, Revision A.03,
 Gaussian 16:  ES64L-G16RevA.03 25-Dec-2016

 ---------------------------------------------------------------
 #p ROCCSD(T)/cc-pVTZ Guess=Read SCF=(VeryTight,CDIIS,VShift=10)
 ---------------------------------------------------------------

 ---------
 O2_O2_273
 ---------
 Symbolic Z-matrix:
 Charge = -1 Multiplicity = 2

                         Standard orientation:
 ---------------------------------------------------------------------
 Center     Atomic      Atomic             Coordinates (Angstroms)
 Number     Number       Type             X           Y           Z
 ---------------------------------------------------------------------
      1          8           0        0.000000    0.000000    2.725222
      2          8           0        0.000000    0.000000    4.077602
      3          8           0        0.000000    0.000000   -4.077602
      4          8           0        0.000000    0.000000   -2.725222
 ---------------------------------------------------------------------

 SCF Done:  E(ROHF) =  -299.131026142     A.U. after    8 cycles
 E2 =    -0.1047308084D+01 EUMP2 =    -0.30017833422621D+03
 CCSD(T)
 CCSD(T)= -0.30018223484D+03

 Unable to determine electronic state:  an orbital has unidentified symmetry.
 Alpha  occ. eigenvalues --  -20.48726 -20.48726 -20.47963 -20.47963  -1.30335
 Alpha  occ. eigenvalues --   -1.30333  -0.92344  -0.92318  -0.47652  -0.47652
 Alpha  occ. eigenvalues --   -0.45083  -0.45076  -0.42458  -0.42283  -0.26484
 Alpha  occ. eigenvalues --   -0.26484  -0.07571
 Alpha virt. eigenvalues --    0.00410   0.49788   0.49895   0.89733   0.89961
 Alpha virt. eigenvalues --    0.92501   0.92504   0.92638   0.92642   0.95880
 Alpha virt. eigenvalues --    0.96028   1.01775   1.01785   1.01981   1.01991

 Mulliken charges and spin densities:
               1          2
     1  O   -0.224722   0.259986
     2  O   -0.275278   0.240014
     3  O   -0.275278   0.240014
     4  O   -0.224722   0.259986
 Sum of Mulliken charges =  -1.00000   1.00000

 Dipole moment (field-independent basis, Debye):
    X=             -0.0000    Y=              0.0000    Z=              0.0000  Tot=              0.0000
 Quadrupole moment (field-independent basis, Debye-Ang):
   XX=            -21.4418   YY=            -23.7609   ZZ=            -83.2517
   XY=              0.0000   XZ=              0.0000   YZ=              0.0000

 361447\CCSD=-300.1275927\CCSD(T)=-300.1822348\RMSD=1.199e-09\PG=D*H [C
 Normal termination of Gaussian 16 at Sun Jan 15 01:51:09 2023.
