 Gaussian 16, Revision A.03,
 Gaussian 16:  ES64L-G16RevA.03 25-Dec-2016

 ---------------------------------------------------------------
 #p ROCCSD(T)/cc-pVTZ Guess=Read SCF=(VeryTight,CDIIS,VShift=10)
 ---------------------------------------------------------------

 ---------
 O2_O2_287
 ---------
 Symbolic Z-matrix:
 Charge = -1 Multiplicity = 2

                         Standard orientation:
 ---------------------------------------------------------------------
 Center     Atomic      Atomic             Coordinates (Angstroms)
 Number     Number       Type             X           Y           Z
 ---------------------------------------------------------------------
      1          8           0        0.000000    0.000000    2.824332
      2          8           0        0.000000    0.000000    4.176712
      3          8           0        0.000000    0.000000   -4.176712
      4          8           0        0.000000    0.000000   -2.824332
 ---------------------------------------------------------------------

 SCF Done:  E(ROHF) =  -299.130994358     A.U. after    8 cycles
 E2 =    -0.1047492207D+01 EUMP2 =    -0.30017848656514D+03
 CCSD(T)
 CCSD(T)= -0.30018220205D+03

 Unable to determine electronic state:  an orbital has unidentified symmetry.
 Alpha  occ. eigenvalues --  -20.48818 -20.48817 -20.48098 -20.48098  -1.30447
 Alpha  occ. eigenvalues --   -1.30445  -0.92457  -0.92434  -0.47763  -0.47763
 Alpha  occ. eigenvalues --   -0.45197  -0.45193  -0.42561  -0.42402  -0.26597
 Alpha  occ. eigenvalues --   -0.26597  -0.07565
 Alpha virt. eigenvalues --    0.00178   0.49694   0.49750   0.89667   0.89787
 Alpha virt. eigenvalues --    0.92392   0.92394   0.92530   0.92531   0.95791
 Alpha virt. eigenvalues --    0.95864   1.01665   1.01669   1.01871   1.01876

 Mulliken charges and spin densities:
               1          2
     1  O   -0.226132   0.259438
     2  O   -0.273868   0.240562
     3  O   -0.273868   0.240562
     4  O   -0.226132   0.259438
 Sum of Mulliken charges =  -1.00000   1.00000

 Dipole moment (field-independent basis, Debye):
    X=             -0.0000    Y=             -0.0000    Z=             -0.0000  Tot=              0.0000
 Quadrupole moment (field-independent basis, Debye-Ang):
   XX=            -21.4414   YY=            -23.7606   ZZ=            -86.4681
   XY=              0.0000   XZ=              0.0000   YZ=              0.0000

 360918\CCSD=-300.1275571\CCSD(T)=-300.182202\RMSD=1.091e-09\PG=D*H [C*
 Normal termination of Gaussian 16 at Sun Jan 15 02:10:40 2023.
