 Gaussian 16, Revision A.03,
 Gaussian 16:  ES64L-G16RevA.03 25-Dec-2016

 ---------------------------------------------------------------
 #p ROCCSD(T)/cc-pVTZ Guess=Read SCF=(VeryTight,CDIIS,VShift=10)
 ---------------------------------------------------------------

 ---------
 O2_O2_286
 ---------
 Symbolic Z-matrix:
 Charge = -1 Multiplicity = 2

                         Standard orientation:
 ---------------------------------------------------------------------
 Center     Atomic      Atomic             Coordinates (Angstroms)
 Number     Number       Type             X           Y           Z
 ---------------------------------------------------------------------
      1          8           0        0.000000    0.000000    2.817252
      2          8           0        0.000000    0.000000    4.169633
      3          8           0        0.000000    0.000000   -4.169633
      4          8           0        0.000000    0.000000   -2.817252
 ---------------------------------------------------------------------

 SCF Done:  E(ROHF) =  -299.130996439     A.U. after    8 cycles
 E2 =    -0.1047479446D+01 EUMP2 =    -0.30017847588533D+03
 CCSD(T)
 CCSD(T)= -0.30018220417D+03

 Unable to determine electronic state:  an orbital has unidentified symmetry.
 Alpha  occ. eigenvalues --  -20.48811 -20.48811 -20.48088 -20.48088  -1.30439
 Alpha  occ. eigenvalues --   -1.30437  -0.92449  -0.92426  -0.47755  -0.47755
 Alpha  occ. eigenvalues --   -0.45189  -0.45184  -0.42554  -0.42394  -0.26589
 Alpha  occ. eigenvalues --   -0.26589  -0.07565
 Alpha virt. eigenvalues --    0.00194   0.49701   0.49759   0.89672   0.89798
 Alpha virt. eigenvalues --    0.92400   0.92402   0.92537   0.92539   0.95797
 Alpha virt. eigenvalues --    0.95875   1.01672   1.01677   1.01879   1.01884

 Mulliken charges and spin densities:
               1          2
     1  O   -0.226035   0.259476
     2  O   -0.273965   0.240524
     3  O   -0.273965   0.240524
     4  O   -0.226035   0.259476
 Sum of Mulliken charges =  -1.00000   1.00000

 Dipole moment (field-independent basis, Debye):
    X=             -0.0000    Y=              0.0000    Z=              0.0000  Tot=              0.0000
 Quadrupole moment (field-independent basis, Debye-Ang):
   XX=            -21.4414   YY=            -23.7606   ZZ=            -86.2351
   XY=              0.0000   XZ=              0.0000   YZ=              0.0000

 360953\CCSD=-300.1275594\CCSD(T)=-300.1822042\RMSD=1.099e-09\PG=D*H [C
 Normal termination of Gaussian 16 at Sun Jan 15 02:09:18 2023.
