 Gaussian 16, Revision A.03,
 Gaussian 16:  ES64L-G16RevA.03 25-Dec-2016

 ---------------------------------------------------------------
 #p ROCCSD(T)/cc-pVTZ Guess=Read SCF=(VeryTight,CDIIS,VShift=10)
 ---------------------------------------------------------------

 --------
 O2_O2_34
 --------
 Symbolic Z-matrix:
 Charge = -1 Multiplicity = 2

                         Standard orientation:
 ---------------------------------------------------------------------
 Center     Atomic      Atomic             Coordinates (Angstroms)
 Number     Number       Type             X           Y           Z
 ---------------------------------------------------------------------
      1          8           0        0.000000    0.000000    1.033272
      2          8           0        0.000000    0.000000    2.385652
      3          8           0        0.000000    0.000000   -2.385652
      4          8           0        0.000000    0.000000   -1.033272
 ---------------------------------------------------------------------

 SCF Done:  E(ROHF) =  -299.014736065     A.U. after    8 cycles
 E2 =    -0.1341079800D+01 EUMP2 =    -0.30035581586509D+03
 CCSD(T)
 CCSD(T)= -0.30022966853D+03

 Unable to determine electronic state:  an orbital has unidentified symmetry.
 Alpha  occ. eigenvalues --  -20.50838 -20.50836 -20.42959 -20.42959  -1.29177
 Alpha  occ. eigenvalues --   -1.27845  -0.92703  -0.87465  -0.48416  -0.46776
 Alpha  occ. eigenvalues --   -0.46598  -0.40030  -0.37730  -0.36795  -0.26213
 Alpha  occ. eigenvalues --   -0.24363  -0.09310
 Alpha virt. eigenvalues --    0.11369   0.51405   0.59541   0.90227   0.91639
 Alpha virt. eigenvalues --    0.92938   0.94024   0.96566   0.98220   1.00643
 Alpha virt. eigenvalues --    1.02597   1.11002   1.12812   1.15388   1.15835

 Mulliken charges and spin densities:
               1          2
     1  O   -0.104613   0.344228
     2  O   -0.395387   0.155772
     3  O   -0.395387   0.155772
     4  O   -0.104613   0.344228
 Sum of Mulliken charges =  -1.00000   1.00000

 Dipole moment (field-independent basis, Debye):
    X=             -0.0000    Y=              0.0000    Z=              0.0000  Tot=              0.0000
 Quadrupole moment (field-independent basis, Debye-Ang):
   XX=            -22.6103   YY=            -23.1515   ZZ=            -45.1790
   XY=              0.0000   XZ=              0.0000   YZ=              0.0000

 52371\CCSD=-300.1172362\CCSD(T)=-300.2296685\RMSD=9.247e-09\PG=D*H [C*
 Normal termination of Gaussian 16 at Sat Jan 14 20:14:18 2023.
