 Gaussian 16, Revision A.03,
 Gaussian 16:  ES64L-G16RevA.03 25-Dec-2016

 ---------------------------------------------------------------
 #p ROCCSD(T)/cc-pVTZ Guess=Read SCF=(VeryTight,CDIIS,VShift=10)
 ---------------------------------------------------------------

 ---------
 O2_O2_199
 ---------
 Symbolic Z-matrix:
 Charge = -1 Multiplicity = 2

                         Standard orientation:
 ---------------------------------------------------------------------
 Center     Atomic      Atomic             Coordinates (Angstroms)
 Number     Number       Type             X           Y           Z
 ---------------------------------------------------------------------
      1          8           0        0.000000    0.000000    2.201354
      2          8           0        0.000000    0.000000    3.553735
      3          8           0        0.000000    0.000000   -3.553735
      4          8           0        0.000000    0.000000   -2.201354
 ---------------------------------------------------------------------

 SCF Done:  E(ROHF) =  -299.131415854     A.U. after    8 cycles
 E2 =    -0.1046095061D+01 EUMP2 =    -0.30017751091540D+03
 CCSD(T)
 CCSD(T)= -0.30018267026D+03

 Unable to determine electronic state:  an orbital has unidentified symmetry.
 Alpha  occ. eigenvalues --  -20.48159 -20.48159 -20.47089 -20.47089  -1.29627
 Alpha  occ. eigenvalues --   -1.29620  -0.91630  -0.91572  -0.46945  -0.46939
 Alpha  occ. eigenvalues --   -0.44380  -0.44297  -0.41810  -0.41509  -0.25769
 Alpha  occ. eigenvalues --   -0.25755  -0.07636
 Alpha virt. eigenvalues --    0.01928   0.49761   0.51384   0.88520   0.91955
 Alpha virt. eigenvalues --    0.93143   0.93251   0.93280   0.93389   0.95573
 Alpha virt. eigenvalues --    0.98975   1.02340   1.02549   1.02669   1.02869

 Mulliken charges and spin densities:
               1          2
     1  O   -0.214800   0.263723
     2  O   -0.285200   0.236277
     3  O   -0.285200   0.236277
     4  O   -0.214800   0.263723
 Sum of Mulliken charges =  -1.00000   1.00000

 Dipole moment (field-independent basis, Debye):
    X=             -0.0000    Y=              0.0000    Z=              0.0000  Tot=              0.0000
 Quadrupole moment (field-independent basis, Debye-Ang):
   XX=            -21.4458   YY=            -23.7635   ZZ=            -67.8858
   XY=              0.0000   XZ=              0.0000   YZ=              0.0000

 367079\CCSD=-300.1280335\CCSD(T)=-300.1826703\RMSD=1.518e-09\PG=D*H [C
 Normal termination of Gaussian 16 at Sun Jan 15 00:12:02 2023.
