 Gaussian 16, Revision A.03,
 Gaussian 16:  ES64L-G16RevA.03 25-Dec-2016

 ---------------------------------------------------------------
 #p ROCCSD(T)/cc-pVTZ Guess=Read SCF=(VeryTight,CDIIS,VShift=10)
 ---------------------------------------------------------------

 ---------
 O2_O2_107
 ---------
 Symbolic Z-matrix:
 Charge = -1 Multiplicity = 2

                         Standard orientation:
 ---------------------------------------------------------------------
 Center     Atomic      Atomic             Coordinates (Angstroms)
 Number     Number       Type             X           Y           Z
 ---------------------------------------------------------------------
      1          8           0        0.000000    0.000000    1.550060
      2          8           0        0.000000    0.000000    2.902440
      3          8           0        0.000000    0.000000   -2.902440
      4          8           0        0.000000    0.000000   -1.550060
 ---------------------------------------------------------------------

 SCF Done:  E(ROHF) =  -298.963443303     A.U. after   11 cycles
 E2 =    -0.1599858130D+01 EUMP2 =    -0.30056330143272D+03
 CCSD(T)
 CCSD(T)= -0.30022681552D+03

 Unable to determine electronic state:  partially filled degenerate orbitals.
 Alpha  occ. eigenvalues --  -20.49706 -20.49705 -20.46317 -20.46317  -1.29392
 Alpha  occ. eigenvalues --   -1.29306  -0.91363  -0.90861  -0.48265  -0.48122
 Alpha  occ. eigenvalues --   -0.44401  -0.43197  -0.39964  -0.39126  -0.26932
 Alpha  occ. eigenvalues --   -0.26759  -0.07069
 Alpha virt. eigenvalues --    0.06047   0.48404   0.54758   0.84545   0.91640
 Alpha virt. eigenvalues --    0.92759   0.93624   0.94135   0.94757   0.95898
 Alpha virt. eigenvalues --    1.00083   1.02198   1.06074   1.08195   1.12943

 Mulliken charges and spin densities:
               1          2
     1  O   -0.181551   0.301749
     2  O   -0.318449   0.198251
     3  O   -0.318449   0.198251
     4  O   -0.181551   0.301749
 Sum of Mulliken charges =  -1.00000   1.00000

 Dipole moment (field-independent basis, Debye):
    X=             -0.0000    Y=              0.0000    Z=              0.0000  Tot=              0.0000
 Quadrupole moment (field-independent basis, Debye-Ang):
   XX=            -22.4841   YY=            -23.0946   ZZ=            -53.2168
   XY=              0.0000   XZ=              0.0000   YZ=              0.0000

 116088\CCSD=-300.0925774\CCSD(T)=-300.2268155\RMSD=6.726e-09\PG=D*H [C
 Normal termination of Gaussian 16 at Sat Jan 14 22:05:42 2023.
