 Gaussian 16, Revision A.03,
 Gaussian 16:  ES64L-G16RevA.03 25-Dec-2016

 ---------------------------------------------------------------
 #p ROCCSD(T)/cc-pVTZ Guess=Read SCF=(VeryTight,CDIIS,VShift=10)
 ---------------------------------------------------------------

 --------
 O2_O2_96
 --------
 Symbolic Z-matrix:
 Charge = -1 Multiplicity = 2

                         Standard orientation:
 ---------------------------------------------------------------------
 Center     Atomic      Atomic             Coordinates (Angstroms)
 Number     Number       Type             X           Y           Z
 ---------------------------------------------------------------------
      1          8           0        0.000000    0.000000    1.472188
      2          8           0        0.000000    0.000000    2.824568
      3          8           0        0.000000    0.000000   -2.824568
      4          8           0        0.000000    0.000000   -1.472188
 ---------------------------------------------------------------------

 SCF Done:  E(ROHF) =  -298.968779927     A.U. after   11 cycles
 E2 =    -0.1562534832D+01 EUMP2 =    -0.30053131475885D+03
 CCSD(T)
 CCSD(T)= -0.30022733092D+03

 Unable to determine electronic state:  an orbital has unidentified symmetry.
 Alpha  occ. eigenvalues --  -20.49771 -20.49770 -20.45988 -20.45988  -1.29274
 Alpha  occ. eigenvalues --   -1.29149  -0.91296  -0.90595  -0.48168  -0.47960
 Alpha  occ. eigenvalues --   -0.44445  -0.42809  -0.39877  -0.38890  -0.26802
 Alpha  occ. eigenvalues --   -0.26531  -0.07231
 Alpha virt. eigenvalues --    0.06583   0.48797   0.55299   0.86491   0.91280
 Alpha virt. eigenvalues --    0.92570   0.93335   0.94483   0.94796   0.96235
 Alpha virt. eigenvalues --    0.99855   1.01939   1.07287   1.09418   1.13014

 Mulliken charges and spin densities:
               1          2
     1  O   -0.175426   0.306248
     2  O   -0.324574   0.193752
     3  O   -0.324574   0.193752
     4  O   -0.175426   0.306248
 Sum of Mulliken charges =  -1.00000   1.00000

 Dipole moment (field-independent basis, Debye):
    X=             -0.0000    Y=             -0.0000    Z=             -0.0000  Tot=              0.0000
 Quadrupole moment (field-independent basis, Debye-Ang):
   XX=            -22.4998   YY=            -23.1029   ZZ=            -51.7185
   XY=              0.0000   XZ=              0.0000   YZ=              0.0000

 39435\CCSD=-300.0952221\CCSD(T)=-300.2273309\RMSD=7.786e-09\PG=D*H [C*
 Normal termination of Gaussian 16 at Sat Jan 14 21:47:33 2023.
