 Gaussian 16, Revision A.03,
 Gaussian 16:  ES64L-G16RevA.03 25-Dec-2016

 ---------------------------------------------------------------
 #p ROCCSD(T)/cc-pVTZ Guess=Read SCF=(VeryTight,CDIIS,VShift=10)
 ---------------------------------------------------------------

 --------
 O2_O2_89
 --------
 Symbolic Z-matrix:
 Charge = -1 Multiplicity = 2

                         Standard orientation:
 ---------------------------------------------------------------------
 Center     Atomic      Atomic             Coordinates (Angstroms)
 Number     Number       Type             X           Y           Z
 ---------------------------------------------------------------------
      1          8           0        0.000000    0.000000    1.422633
      2          8           0        0.000000    0.000000    2.775013
      3          8           0        0.000000    0.000000   -2.775013
      4          8           0        0.000000    0.000000   -1.422633
 ---------------------------------------------------------------------

 SCF Done:  E(ROHF) =  -298.972654700     A.U. after   11 cycles
 E2 =    -0.1538360286D+01 EUMP2 =    -0.30051101498606D+03
 CCSD(T)
 CCSD(T)= -0.30022778662D+03

 Unable to determine electronic state:  an orbital has unidentified symmetry.
 Alpha  occ. eigenvalues --  -20.49831 -20.49830 -20.45760 -20.45760  -1.29204
 Alpha  occ. eigenvalues --   -1.29045  -0.91273  -0.90402  -0.48115  -0.47850
 Alpha  occ. eigenvalues --   -0.44507  -0.42520  -0.39830  -0.38728  -0.26723
 Alpha  occ. eigenvalues --   -0.26372  -0.07356
 Alpha virt. eigenvalues --    0.06957   0.49093   0.55657   0.88181   0.91016
 Alpha virt. eigenvalues --    0.92432   0.93127   0.94708   0.94819   0.96453
 Alpha virt. eigenvalues --    0.99745   1.01807   1.08141   1.10280   1.13047

 Mulliken charges and spin densities:
               1          2
     1  O   -0.170911   0.309432
     2  O   -0.329089   0.190568
     3  O   -0.329089   0.190568
     4  O   -0.170911   0.309432
 Sum of Mulliken charges =  -1.00000   1.00000

 Dipole moment (field-independent basis, Debye):
    X=             -0.0000    Y=              0.0000    Z=             -0.0000  Tot=              0.0000
 Quadrupole moment (field-independent basis, Debye-Ang):
   XX=            -22.5112   YY=            -23.1089   ZZ=            -50.8051
   XY=              0.0000   XZ=              0.0000   YZ=              0.0000

 264\CCSD=-300.0971962\CCSD(T)=-300.2277866\RMSD=8.390e-09\PG=D*H [C*(O
 Normal termination of Gaussian 16 at Sat Jan 14 21:36:55 2023.
