 Gaussian 16, Revision A.03,
 Gaussian 16:  ES64L-G16RevA.03 25-Dec-2016

 ---------------------------------------------------------------
 #p ROCCSD(T)/cc-pVTZ Guess=Read SCF=(VeryTight,CDIIS,VShift=10)
 ---------------------------------------------------------------

 ---------
 O2_O2_212
 ---------
 Symbolic Z-matrix:
 Charge = -1 Multiplicity = 2

                         Standard orientation:
 ---------------------------------------------------------------------
 Center     Atomic      Atomic             Coordinates (Angstroms)
 Number     Number       Type             X           Y           Z
 ---------------------------------------------------------------------
      1          8           0        0.000000    0.000000    2.293385
      2          8           0        0.000000    0.000000    3.645765
      3          8           0        0.000000    0.000000   -3.645765
      4          8           0        0.000000    0.000000   -2.293385
 ---------------------------------------------------------------------

 SCF Done:  E(ROHF) =  -299.131297228     A.U. after    8 cycles
 E2 =    -0.1046341359D+01 EUMP2 =    -0.30017763858689D+03
 CCSD(T)
 CCSD(T)= -0.30018253350D+03

 Unable to determine electronic state:  an orbital has unidentified symmetry.
 Alpha  occ. eigenvalues --  -20.48269 -20.48269 -20.47266 -20.47266  -1.29768
 Alpha  occ. eigenvalues --   -1.29762  -0.91771  -0.91723  -0.47085  -0.47081
 Alpha  occ. eigenvalues --   -0.44514  -0.44460  -0.41937  -0.41666  -0.25910
 Alpha  occ. eigenvalues --   -0.25902  -0.07618
 Alpha virt. eigenvalues --    0.01618   0.49889   0.50990   0.89119   0.91477
 Alpha virt. eigenvalues --    0.93028   0.93090   0.93165   0.93228   0.95768
 Alpha virt. eigenvalues --    0.97882   1.02264   1.02453   1.02471   1.02656

 Mulliken charges and spin densities:
               1          2
     1  O   -0.216907   0.262955
     2  O   -0.283093   0.237045
     3  O   -0.283093   0.237045
     4  O   -0.216907   0.262955
 Sum of Mulliken charges =  -1.00000   1.00000

 Dipole moment (field-independent basis, Debye):
    X=             -0.0000    Y=              0.0000    Z=             -0.0000  Tot=              0.0000
 Quadrupole moment (field-independent basis, Debye-Ang):
   XX=            -21.4446   YY=            -23.7629   ZZ=            -70.3859
   XY=              0.0000   XZ=              0.0000   YZ=              0.0000

 63\CCSD=-300.1278983\CCSD(T)=-300.1825335\RMSD=1.564e-09\PG=D*H [C*(O1
 Normal termination of Gaussian 16 at Sun Jan 15 00:29:10 2023.
