 Gaussian 16, Revision A.03,
 Gaussian 16:  ES64L-G16RevA.03 25-Dec-2016

 ---------------------------------------------------------------
 #p ROCCSD(T)/cc-pVTZ Guess=Read SCF=(VeryTight,CDIIS,VShift=10)
 ---------------------------------------------------------------

 ---------
 O2_O2_265
 ---------
 Symbolic Z-matrix:
 Charge = -1 Multiplicity = 2

                         Standard orientation:
 ---------------------------------------------------------------------
 Center     Atomic      Atomic             Coordinates (Angstroms)
 Number     Number       Type             X           Y           Z
 ---------------------------------------------------------------------
      1          8           0        0.000000    0.000000    2.668588
      2          8           0        0.000000    0.000000    4.020968
      3          8           0        0.000000    0.000000   -4.020968
      4          8           0        0.000000    0.000000   -2.668588
 ---------------------------------------------------------------------

 SCF Done:  E(ROHF) =  -299.131047296     A.U. after    8 cycles
 E2 =    -0.1047197296D+01 EUMP2 =    -0.30017824459189D+03
 CCSD(T)
 CCSD(T)= -0.30018225710D+03

 Unable to determine electronic state:  an orbital has unidentified symmetry.
 Alpha  occ. eigenvalues --  -20.48671 -20.48671 -20.47883 -20.47883  -1.30269
 Alpha  occ. eigenvalues --   -1.30266  -0.92277  -0.92249  -0.47585  -0.47585
 Alpha  occ. eigenvalues --   -0.45015  -0.45006  -0.42396  -0.42212  -0.26417
 Alpha  occ. eigenvalues --   -0.26416  -0.07575
 Alpha virt. eigenvalues --    0.00549   0.49837   0.49989   0.89757   0.90081
 Alpha virt. eigenvalues --    0.92565   0.92571   0.92703   0.92708   0.95923
 Alpha virt. eigenvalues --    0.96140   1.01840   1.01855   1.02046   1.02061

 Mulliken charges and spin densities:
               1          2
     1  O   -0.223861   0.260319
     2  O   -0.276139   0.239681
     3  O   -0.276139   0.239681
     4  O   -0.223861   0.260319
 Sum of Mulliken charges =  -1.00000   1.00000

 Dipole moment (field-independent basis, Debye):
    X=             -0.0000    Y=              0.0000    Z=              0.0000  Tot=              0.0000
 Quadrupole moment (field-independent basis, Debye-Ang):
   XX=            -21.4420   YY=            -23.7611   ZZ=            -81.4579
   XY=              0.0000   XZ=              0.0000   YZ=              0.0000

 36179\CCSD=-300.1276164\CCSD(T)=-300.1822571\RMSD=1.266e-09\PG=D*H [C*
 Normal termination of Gaussian 16 at Sun Jan 15 01:40:25 2023.
