 Gaussian 16, Revision A.03,
 Gaussian 16:  ES64L-G16RevA.03 25-Dec-2016

 ---------------------------------------------------------------
 #p ROCCSD(T)/cc-pVTZ Guess=Read SCF=(VeryTight,CDIIS,VShift=10)
 ---------------------------------------------------------------

 ---------
 O2_O2_272
 ---------
 Symbolic Z-matrix:
 Charge = -1 Multiplicity = 2

                         Standard orientation:
 ---------------------------------------------------------------------
 Center     Atomic      Atomic             Coordinates (Angstroms)
 Number     Number       Type             X           Y           Z
 ---------------------------------------------------------------------
      1          8           0        0.000000    0.000000    2.718142
      2          8           0        0.000000    0.000000    4.070523
      3          8           0        0.000000    0.000000   -4.070523
      4          8           0        0.000000    0.000000   -2.718142
 ---------------------------------------------------------------------

 SCF Done:  E(ROHF) =  -299.131028654     A.U. after    8 cycles
 E2 =    -0.1047294465D+01 EUMP2 =    -0.30017832311897D+03
 CCSD(T)
 CCSD(T)= -0.30018223747D+03

 Unable to determine electronic state:  an orbital has unidentified symmetry.
 Alpha  occ. eigenvalues --  -20.48719 -20.48719 -20.47954 -20.47953  -1.30327
 Alpha  occ. eigenvalues --   -1.30325  -0.92336  -0.92310  -0.47644  -0.47643
 Alpha  occ. eigenvalues --   -0.45074  -0.45068  -0.42450  -0.42274  -0.26476
 Alpha  occ. eigenvalues --   -0.26475  -0.07572
 Alpha virt. eigenvalues --    0.00427   0.49795   0.49906   0.89737   0.89975
 Alpha virt. eigenvalues --    0.92509   0.92513   0.92646   0.92650   0.95886
 Alpha virt. eigenvalues --    0.96041   1.01783   1.01793   1.01990   1.02000

 Mulliken charges and spin densities:
               1          2
     1  O   -0.224617   0.260027
     2  O   -0.275383   0.239973
     3  O   -0.275383   0.239973
     4  O   -0.224617   0.260027
 Sum of Mulliken charges =  -1.00000   1.00000

 Dipole moment (field-independent basis, Debye):
    X=             -0.0000    Y=             -0.0000    Z=              0.0000  Tot=              0.0000
 Quadrupole moment (field-independent basis, Debye-Ang):
   XX=            -21.4418   YY=            -23.7610   ZZ=            -83.0257
   XY=              0.0000   XZ=              0.0000   YZ=              0.0000

 361488\CCSD=-300.1275955\CCSD(T)=-300.1822375\RMSD=1.207e-09\PG=D*H [C
 Normal termination of Gaussian 16 at Sun Jan 15 01:49:49 2023.
