 Gaussian 16, Revision A.03,
 Gaussian 16:  ES64L-G16RevA.03 25-Dec-2016

 ---------------------------------------------------------------
 #p ROCCSD(T)/cc-pVTZ Guess=Read SCF=(VeryTight,CDIIS,VShift=10)
 ---------------------------------------------------------------

 --------
 O2_O2_90
 --------
 Symbolic Z-matrix:
 Charge = -1 Multiplicity = 2

                         Standard orientation:
 ---------------------------------------------------------------------
 Center     Atomic      Atomic             Coordinates (Angstroms)
 Number     Number       Type             X           Y           Z
 ---------------------------------------------------------------------
      1          8           0        0.000000    0.000000    1.429712
      2          8           0        0.000000    0.000000    2.782092
      3          8           0        0.000000    0.000000   -2.782092
      4          8           0        0.000000    0.000000   -1.429712
 ---------------------------------------------------------------------

 SCF Done:  E(ROHF) =  -298.972076773     A.U. after   11 cycles
 E2 =    -0.1541833493D+01 EUMP2 =    -0.30051391026581D+03
 CCSD(T)
 CCSD(T)= -0.30022771545D+03

 Unable to determine electronic state:  an orbital has unidentified symmetry.
 Alpha  occ. eigenvalues --  -20.49822 -20.49821 -20.45793 -20.45793  -1.29214
 Alpha  occ. eigenvalues --   -1.29060  -0.91275  -0.90431  -0.48122  -0.47866
 Alpha  occ. eigenvalues --   -0.44496  -0.42564  -0.39836  -0.38752  -0.26734
 Alpha  occ. eigenvalues --   -0.26395  -0.07337
 Alpha virt. eigenvalues --    0.06902   0.49049   0.55605   0.87918   0.91055
 Alpha virt. eigenvalues --    0.92452   0.93157   0.94676   0.94816   0.96421
 Alpha virt. eigenvalues --    0.99759   1.01823   1.08016   1.10154   1.13043

 Mulliken charges and spin densities:
               1          2
     1  O   -0.171589   0.308961
     2  O   -0.328411   0.191039
     3  O   -0.328411   0.191039
     4  O   -0.171589   0.308961
 Sum of Mulliken charges =  -1.00000   1.00000

 Dipole moment (field-independent basis, Debye):
    X=             -0.0000    Y=              0.0000    Z=              0.0000  Tot=              0.0000
 Quadrupole moment (field-independent basis, Debye-Ang):
   XX=            -22.5095   YY=            -23.1080   ZZ=            -50.9336
   XY=              0.0000   XZ=              0.0000   YZ=              0.0000

 27163\CCSD=-300.0968996\CCSD(T)=-300.2277155\RMSD=8.303e-09\PG=D*H [C*
 Normal termination of Gaussian 16 at Sat Jan 14 21:38:25 2023.
