 Gaussian 16, Revision A.03,
 Gaussian 16:  ES64L-G16RevA.03 25-Dec-2016

 ---------------------------------------------------------------
 #p ROCCSD(T)/cc-pVTZ Guess=Read SCF=(VeryTight,CDIIS,VShift=10)
 ---------------------------------------------------------------

 ---------
 O2_O2_227
 ---------
 Symbolic Z-matrix:
 Charge = -1 Multiplicity = 2

                         Standard orientation:
 ---------------------------------------------------------------------
 Center     Atomic      Atomic             Coordinates (Angstroms)
 Number     Number       Type             X           Y           Z
 ---------------------------------------------------------------------
      1          8           0        0.000000    0.000000    2.399575
      2          8           0        0.000000    0.000000    3.751955
      3          8           0        0.000000    0.000000   -3.751955
      4          8           0        0.000000    0.000000   -2.399575
 ---------------------------------------------------------------------

 SCF Done:  E(ROHF) =  -299.131197828     A.U. after    8 cycles
 E2 =    -0.1046607127D+01 EUMP2 =    -0.30017780495508D+03
 CCSD(T)
 CCSD(T)= -0.30018242139D+03

 Unable to determine electronic state:  an orbital has unidentified symmetry.
 Alpha  occ. eigenvalues --  -20.48391 -20.48390 -20.47457 -20.47457  -1.29921
 Alpha  occ. eigenvalues --   -1.29916  -0.91926  -0.91886  -0.47238  -0.47236
 Alpha  occ. eigenvalues --   -0.44664  -0.44632  -0.42076  -0.41835  -0.26065
 Alpha  occ. eigenvalues --   -0.26060  -0.07602
 Alpha virt. eigenvalues --    0.01287   0.49949   0.50619   0.89523   0.90963
 Alpha virt. eigenvalues --    0.92893   0.92925   0.93030   0.93062   0.95918
 Alpha virt. eigenvalues --    0.97088   1.02153   1.02250   1.02360   1.02454

 Mulliken charges and spin densities:
               1          2
     1  O   -0.219122   0.262129
     2  O   -0.280878   0.237871
     3  O   -0.280878   0.237871
     4  O   -0.219122   0.262129
 Sum of Mulliken charges =  -1.00000   1.00000

 Dipole moment (field-independent basis, Debye):
    X=             -0.0000    Y=              0.0000    Z=              0.0000  Tot=              0.0000
 Quadrupole moment (field-independent basis, Debye-Ang):
   XX=            -21.4436   YY=            -23.7623   ZZ=            -73.3761
   XY=              0.0000   XZ=              0.0000   YZ=              0.0000

 4064\CCSD=-300.1277859\CCSD(T)=-300.1824214\RMSD=1.556e-09\PG=D*H [C*(
 Normal termination of Gaussian 16 at Sun Jan 15 00:48:55 2023.
