 Gaussian 16, Revision A.03,
 Gaussian 16:  ES64L-G16RevA.03 25-Dec-2016

 ---------------------------------------------------------------
 #p ROCCSD(T)/cc-pVTZ Guess=Read SCF=(VeryTight,CDIIS,VShift=10)
 ---------------------------------------------------------------

 ---------
 O2_O2_123
 ---------
 Symbolic Z-matrix:
 Charge = -1 Multiplicity = 2

                         Standard orientation:
 ---------------------------------------------------------------------
 Center     Atomic      Atomic             Coordinates (Angstroms)
 Number     Number       Type             X           Y           Z
 ---------------------------------------------------------------------
      1          8           0        0.000000    0.000000    1.663329
      2          8           0        0.000000    0.000000    3.015709
      3          8           0        0.000000    0.000000   -3.015709
      4          8           0        0.000000    0.000000   -1.663329
 ---------------------------------------------------------------------

 SCF Done:  E(ROHF) =  -299.133489468     A.U. after    8 cycles
 E2 =    -0.1044342903D+01 EUMP2 =    -0.30017783237128D+03
 CCSD(T)
 CCSD(T)= -0.30018525880D+03

 Unable to determine electronic state:  an orbital has unidentified symmetry.
 Alpha  occ. eigenvalues --  -20.47450 -20.47449 -20.45776 -20.45776  -1.28637
 Alpha  occ. eigenvalues --   -1.28588  -0.90704  -0.90386  -0.45979  -0.45897
 Alpha  occ. eigenvalues --   -0.43652  -0.42869  -0.40957  -0.40309  -0.24822
 Alpha  occ. eigenvalues --   -0.24636  -0.07909
 Alpha virt. eigenvalues --    0.04386   0.48558   0.54720   0.83876   0.93137
 Alpha virt. eigenvalues --    0.93337   0.93444   0.94784   0.94843   0.94911
 Alpha virt. eigenvalues --    1.01638   1.01890   1.05913   1.06062   1.13187

 Mulliken charges and spin densities:
               1          2
     1  O   -0.197266   0.268823
     2  O   -0.302734   0.231177
     3  O   -0.302734   0.231177
     4  O   -0.197266   0.268823
 Sum of Mulliken charges =  -1.00000   1.00000

 Dipole moment (field-independent basis, Debye):
    X=             -0.0000    Y=              0.0000    Z=              0.0000  Tot=              0.0000
 Quadrupole moment (field-independent basis, Debye-Ang):
   XX=            -21.4668   YY=            -23.7689   ZZ=            -54.9980
   XY=              0.0000   XZ=              0.0000   YZ=              0.0000

 94311\CCSD=-300.1305096\CCSD(T)=-300.1852588\RMSD=9.149e-09\PG=D*H [C*
 Normal termination of Gaussian 16 at Sat Jan 14 22:29:36 2023.
