 Gaussian 16, Revision A.03,
 Gaussian 16:  ES64L-G16RevA.03 25-Dec-2016

 ---------------------------------------------------------------
 #p ROCCSD(T)/cc-pVTZ Guess=Read SCF=(VeryTight,CDIIS,VShift=10)
 ---------------------------------------------------------------

 ---------
 O2_O2_278
 ---------
 Symbolic Z-matrix:
 Charge = -1 Multiplicity = 2

                         Standard orientation:
 ---------------------------------------------------------------------
 Center     Atomic      Atomic             Coordinates (Angstroms)
 Number     Number       Type             X           Y           Z
 ---------------------------------------------------------------------
      1          8           0        0.000000    0.000000    2.760619
      2          8           0        0.000000    0.000000    4.112999
      3          8           0        0.000000    0.000000   -4.112999
      4          8           0        0.000000    0.000000   -2.760619
 ---------------------------------------------------------------------

 SCF Done:  E(ROHF) =  -299.131014097     A.U. after    8 cycles
 E2 =    -0.1047375223D+01 EUMP2 =    -0.30017838932069D+03
 CCSD(T)
 CCSD(T)= -0.30018222231D+03

 Unable to determine electronic state:  an orbital has unidentified symmetry.
 Alpha  occ. eigenvalues --  -20.48759 -20.48759 -20.48012 -20.48012  -1.30376
 Alpha  occ. eigenvalues --   -1.30374  -0.92385  -0.92360  -0.47692  -0.47692
 Alpha  occ. eigenvalues --   -0.45124  -0.45119  -0.42495  -0.42326  -0.26526
 Alpha  occ. eigenvalues --   -0.26525  -0.07569
 Alpha virt. eigenvalues --    0.00325   0.49755   0.49840   0.89713   0.89894
 Alpha virt. eigenvalues --    0.92462   0.92464   0.92599   0.92601   0.95850
 Alpha virt. eigenvalues --    0.95966   1.01735   1.01743   1.01942   1.01949

 Mulliken charges and spin densities:
               1          2
     1  O   -0.225239   0.259785
     2  O   -0.274761   0.240215
     3  O   -0.274761   0.240215
     4  O   -0.225239   0.259785
 Sum of Mulliken charges =  -1.00000   1.00000

 Dipole moment (field-independent basis, Debye):
    X=             -0.0000    Y=              0.0000    Z=              0.0000  Tot=              0.0000
 Quadrupole moment (field-independent basis, Debye-Ang):
   XX=            -21.4416   YY=            -23.7608   ZZ=            -84.3892
   XY=              0.0000   XZ=              0.0000   YZ=              0.0000

 361248\CCSD=-300.1275792\CCSD(T)=-300.1822223\RMSD=1.159e-09\PG=D*H [C
 Normal termination of Gaussian 16 at Sun Jan 15 01:57:46 2023.
