 Gaussian 16, Revision A.03,
 Gaussian 16:  ES64L-G16RevA.03 25-Dec-2016

 ---------------------------------------------------------------
 #p ROCCSD(T)/cc-pVTZ Guess=Read SCF=(VeryTight,CDIIS,VShift=10)
 ---------------------------------------------------------------

 -------
 O2_O2_5
 -------
 Symbolic Z-matrix:
 Charge = -1 Multiplicity = 2

                         Standard orientation:
 ---------------------------------------------------------------------
 Center     Atomic      Atomic             Coordinates (Angstroms)
 Number     Number       Type             X           Y           Z
 ---------------------------------------------------------------------
      1          8           0        0.000000    0.000000    0.827972
      2          8           0        0.000000    0.000000    2.180352
      3          8           0        0.000000    0.000000   -2.180352
      4          8           0        0.000000    0.000000   -0.827972
 ---------------------------------------------------------------------

 SCF Done:  E(ROHF) =  -299.009983479     A.U. after   12 cycles
 E2 =    -0.1249123170D+01 EUMP2 =    -0.30025910664918D+03
 CCSD(T)
 CCSD(T)= -0.30019535780D+03

 Unable to determine electronic state:  an orbital has unidentified symmetry.
 Alpha  occ. eigenvalues --  -20.51775 -20.51769 -20.39853 -20.39853  -1.31238
 Alpha  occ. eigenvalues --   -1.26412  -0.97225  -0.83515  -0.50734  -0.50056
 Alpha  occ. eigenvalues --   -0.45165  -0.41872  -0.34762  -0.29982  -0.25923
 Alpha  occ. eigenvalues --   -0.22089  -0.11541
 Alpha virt. eigenvalues --    0.15677   0.51907   0.64174   0.91464   0.91489
 Alpha virt. eigenvalues --    0.93027   0.94335   0.97932   0.99522   1.03107
 Alpha virt. eigenvalues --    1.05150   1.11130   1.11978   1.18101   1.20451

 Mulliken charges and spin densities:
               1          2
     1  O   -0.026927   0.366497
     2  O   -0.473073   0.133503
     3  O   -0.473073   0.133503
     4  O   -0.026927   0.366497
 Sum of Mulliken charges =  -1.00000   1.00000

 Dipole moment (field-independent basis, Debye):
    X=             -0.0000    Y=              0.0000    Z=             -0.0000  Tot=              0.0000
 Quadrupole moment (field-independent basis, Debye-Ang):
   XX=            -22.5455   YY=            -23.0644   ZZ=            -44.2900
   XY=              0.0000   XZ=              0.0000   YZ=              0.0000

 56\CCSD=-300.0969026\CCSD(T)=-300.1953578\RMSD=8.999e-10\PG=D*H [C*(O1
 Normal termination of Gaussian 16 at Sat Jan 14 19:31:43 2023.
