 Gaussian 16, Revision A.03,
 Gaussian 16:  ES64L-G16RevA.03 25-Dec-2016

 ---------------------------------------------------------------
 #p ROCCSD(T)/cc-pVTZ Guess=Read SCF=(VeryTight,CDIIS,VShift=10)
 ---------------------------------------------------------------

 ---------
 O2_O2_188
 ---------
 Symbolic Z-matrix:
 Charge = -1 Multiplicity = 2

                         Standard orientation:
 ---------------------------------------------------------------------
 Center     Atomic      Atomic             Coordinates (Angstroms)
 Number     Number       Type             X           Y           Z
 ---------------------------------------------------------------------
      1          8           0        0.000000    0.000000    2.123482
      2          8           0        0.000000    0.000000    3.475862
      3          8           0        0.000000    0.000000   -3.475862
      4          8           0        0.000000    0.000000   -2.123482
 ---------------------------------------------------------------------

 SCF Done:  E(ROHF) =  -299.131548823     A.U. after    8 cycles
 E2 =    -0.1045875472D+01 EUMP2 =    -0.30017742429569D+03
 CCSD(T)
 CCSD(T)= -0.30018282669D+03

 Unable to determine electronic state:  an orbital has unidentified symmetry.
 Alpha  occ. eigenvalues --  -20.48063 -20.48063 -20.46931 -20.46931  -1.29501
 Alpha  occ. eigenvalues --   -1.29493  -0.91506  -0.91436  -0.46820  -0.46812
 Alpha  occ. eigenvalues --   -0.44264  -0.44147  -0.41698  -0.41368  -0.25644
 Alpha  occ. eigenvalues --   -0.25623  -0.07654
 Alpha virt. eigenvalues --    0.02209   0.49589   0.51770   0.87798   0.92336
 Alpha virt. eigenvalues --    0.93235   0.93371   0.93404   0.93541   0.95385
 Alpha virt. eigenvalues --    1.00329   1.02379   1.02590   1.02891   1.03089

 Mulliken charges and spin densities:
               1          2
     1  O   -0.212864   0.264409
     2  O   -0.287136   0.235591
     3  O   -0.287136   0.235591
     4  O   -0.212864   0.264409
 Sum of Mulliken charges =  -1.00000   1.00000

 Dipole moment (field-independent basis, Debye):
    X=             -0.0000    Y=              0.0000    Z=             -0.0000  Tot=              0.0000
 Quadrupole moment (field-independent basis, Debye-Ang):
   XX=            -21.4471   YY=            -23.7641   ZZ=            -65.8368
   XY=              0.0000   XZ=              0.0000   YZ=              0.0000

 68857\CCSD=-300.1281865\CCSD(T)=-300.1828267\RMSD=1.566e-09\PG=D*H [C*
 Normal termination of Gaussian 16 at Sat Jan 14 23:56:47 2023.
