 Gaussian 16, Revision A.03,
 Gaussian 16:  ES64L-G16RevA.03 25-Dec-2016

 ---------------------------------------------------------------
 #p ROCCSD(T)/cc-pVTZ Guess=Read SCF=(VeryTight,CDIIS,VShift=10)
 ---------------------------------------------------------------

 --------
 O2_O2_70
 --------
 Symbolic Z-matrix:
 Charge = -1 Multiplicity = 2

                         Standard orientation:
 ---------------------------------------------------------------------
 Center     Atomic      Atomic             Coordinates (Angstroms)
 Number     Number       Type             X           Y           Z
 ---------------------------------------------------------------------
      1          8           0        0.000000    0.000000    1.288126
      2          8           0        0.000000    0.000000    2.640506
      3          8           0        0.000000    0.000000   -2.640506
      4          8           0        0.000000    0.000000   -1.288126
 ---------------------------------------------------------------------

 SCF Done:  E(ROHF) =  -298.985278115     A.U. after   12 cycles
 E2 =    -0.1471204548D+01 EUMP2 =    -0.30045648266301D+03
 CCSD(T)
 CCSD(T)= -0.30022945647D+03

 Unable to determine electronic state:  an orbital has unidentified symmetry.
 Alpha  occ. eigenvalues --  -20.50074 -20.50072 -20.45036 -20.45036  -1.29052
 Alpha  occ. eigenvalues --   -1.28731  -0.91340  -0.89743  -0.48028  -0.47520
 Alpha  occ. eigenvalues --   -0.44861  -0.41505  -0.39748  -0.38219  -0.26522
 Alpha  occ. eigenvalues --   -0.25864  -0.07801
 Alpha virt. eigenvalues --    0.08133   0.49957   0.56723   0.90304   0.92068
 Alpha virt. eigenvalues --    0.92596   0.94105   0.95326   0.95335   0.97045
 Alpha virt. eigenvalues --    0.99657   1.01655   1.10684   1.12847   1.13083

 Mulliken charges and spin densities:
               1          2
     1  O   -0.155474   0.319476
     2  O   -0.344526   0.180524
     3  O   -0.344526   0.180524
     4  O   -0.155474   0.319476
 Sum of Mulliken charges =  -1.00000   1.00000

 Dipole moment (field-independent basis, Debye):
    X=             -0.0000    Y=              0.0000    Z=             -0.0000  Tot=              0.0000
 Quadrupole moment (field-independent basis, Debye-Ang):
   XX=            -22.5473   YY=            -23.1277   ZZ=            -48.5051
   XY=              0.0000   XZ=              0.0000   YZ=              0.0000

 98572\CCSD=-300.1037652\CCSD(T)=-300.2294565\RMSD=3.178e-10\PG=D*H [C*
 Normal termination of Gaussian 16 at Sat Jan 14 21:08:33 2023.
