 Gaussian 16, Revision A.03,
 Gaussian 16:  ES64L-G16RevA.03 25-Dec-2016

 ---------------------------------------------------------------
 #p ROCCSD(T)/cc-pVTZ Guess=Read SCF=(VeryTight,CDIIS,VShift=10)
 ---------------------------------------------------------------

 -------
 O2_O2_8
 -------
 Symbolic Z-matrix:
 Charge = -1 Multiplicity = 2

                         Standard orientation:
 ---------------------------------------------------------------------
 Center     Atomic      Atomic             Coordinates (Angstroms)
 Number     Number       Type             X           Y           Z
 ---------------------------------------------------------------------
      1          8           0        0.000000    0.000000    0.849210
      2          8           0        0.000000    0.000000    2.201590
      3          8           0        0.000000    0.000000   -2.201590
      4          8           0        0.000000    0.000000   -0.849210
 ---------------------------------------------------------------------

 SCF Done:  E(ROHF) =  -299.014717863     A.U. after   10 cycles
 E2 =    -0.1256823264D+01 EUMP2 =    -0.30027154112746D+03
 CCSD(T)
 CCSD(T)= -0.30020293897D+03

 Unable to determine electronic state:  an orbital has unidentified symmetry.
 Alpha  occ. eigenvalues --  -20.51639 -20.51633 -20.40273 -20.40273  -1.30787
 Alpha  occ. eigenvalues --   -1.26608  -0.96501  -0.84056  -0.50290  -0.49650
 Alpha  occ. eigenvalues --   -0.45358  -0.41507  -0.35028  -0.31161  -0.25968
 Alpha  occ. eigenvalues --   -0.22392  -0.11266
 Alpha virt. eigenvalues --    0.15135   0.51936   0.63483   0.91390   0.91463
 Alpha virt. eigenvalues --    0.93196   0.94247   0.97762   0.99357   1.02762
 Alpha virt. eigenvalues --    1.04800   1.11396   1.12099   1.17885   1.20218

 Mulliken charges and spin densities:
               1          2
     1  O   -0.037764   0.364376
     2  O   -0.462236   0.135624
     3  O   -0.462236   0.135624
     4  O   -0.037764   0.364376
 Sum of Mulliken charges =  -1.00000   1.00000

 Dipole moment (field-independent basis, Debye):
    X=             -0.0000    Y=             -0.0000    Z=              0.0000  Tot=              0.0000
 Quadrupole moment (field-independent basis, Debye-Ang):
   XX=            -22.5633   YY=            -23.0833   ZZ=            -44.2635
   XY=              0.0000   XZ=              0.0000   YZ=              0.0000

 39\CCSD=-300.1030561\CCSD(T)=-300.202939\RMSD=6.759e-09\PG=D*H [C*(O1O
 Normal termination of Gaussian 16 at Sat Jan 14 19:36:16 2023.
