 Gaussian 16, Revision A.03,
 Gaussian 16:  ES64L-G16RevA.03 25-Dec-2016

 ---------------------------------------------------------------
 #p ROCCSD(T)/cc-pVTZ Guess=Read SCF=(VeryTight,CDIIS,VShift=10)
 ---------------------------------------------------------------

 --------
 O2_O2_77
 --------
 Symbolic Z-matrix:
 Charge = -1 Multiplicity = 2

                         Standard orientation:
 ---------------------------------------------------------------------
 Center     Atomic      Atomic             Coordinates (Angstroms)
 Number     Number       Type             X           Y           Z
 ---------------------------------------------------------------------
      1          8           0        0.000000    0.000000    1.337681
      2          8           0        0.000000    0.000000    2.690061
      3          8           0        0.000000    0.000000   -2.690061
      4          8           0        0.000000    0.000000   -1.337681
 ---------------------------------------------------------------------

 SCF Done:  E(ROHF) =  -298.980259438     A.U. after   11 cycles
 E2 =    -0.1496188100D+01 EUMP2 =    -0.30047644753827D+03
 CCSD(T)
 CCSD(T)= -0.30022878497D+03

 Unable to determine electronic state:  an orbital has unidentified symmetry.
 Alpha  occ. eigenvalues --  -20.49970 -20.49969 -20.45323 -20.45323  -1.29100
 Alpha  occ. eigenvalues --   -1.28853  -0.91288  -0.90013  -0.48048  -0.47648
 Alpha  occ. eigenvalues --   -0.44693  -0.41926  -0.39768  -0.38420  -0.26593
 Alpha  occ. eigenvalues --   -0.26066  -0.07616
 Alpha virt. eigenvalues --    0.07669   0.49637   0.56311   0.90550   0.91889
 Alpha virt. eigenvalues --    0.92193   0.92770   0.94880   0.95098   0.96827
 Alpha virt. eigenvalues --    0.99649   1.01670   1.09721   1.11875   1.13080

 Mulliken charges and spin densities:
               1          2
     1  O   -0.161790   0.315528
     2  O   -0.338210   0.184472
     3  O   -0.338210   0.184472
     4  O   -0.161790   0.315528
 Sum of Mulliken charges =  -1.00000   1.00000

 Dipole moment (field-independent basis, Debye):
    X=             -0.0000    Y=             -0.0000    Z=              0.0000  Tot=              0.0000
 Quadrupole moment (field-independent basis, Debye-Ang):
   XX=            -22.5332   YY=            -23.1204   ZZ=            -49.3194
   XY=              0.0000   XZ=              0.0000   YZ=              0.0000

 16264\CCSD=-300.1011439\CCSD(T)=-300.228785\RMSD=9.843e-09\PG=D*H [C*(
 Normal termination of Gaussian 16 at Sat Jan 14 21:19:18 2023.
