 Gaussian 16, Revision A.03,
 Gaussian 16:  ES64L-G16RevA.03 25-Dec-2016

 ---------------------------------------------------------------
 #p ROCCSD(T)/cc-pVTZ Guess=Read SCF=(VeryTight,CDIIS,VShift=10)
 ---------------------------------------------------------------

 ---------
 O2_O2_257
 ---------
 Symbolic Z-matrix:
 Charge = -1 Multiplicity = 2

                         Standard orientation:
 ---------------------------------------------------------------------
 Center     Atomic      Atomic             Coordinates (Angstroms)
 Number     Number       Type             X           Y           Z
 ---------------------------------------------------------------------
      1          8           0        0.000000    0.000000    2.611954
      2          8           0        0.000000    0.000000    3.964334
      3          8           0        0.000000    0.000000   -3.964334
      4          8           0        0.000000    0.000000   -2.611954
 ---------------------------------------------------------------------

 SCF Done:  E(ROHF) =  -299.131071184     A.U. after    8 cycles
 E2 =    -0.1047082151D+01 EUMP2 =    -0.30017815333504D+03
 CCSD(T)
 CCSD(T)= -0.30018228255D+03

 Unable to determine electronic state:  an orbital has unidentified symmetry.
 Alpha  occ. eigenvalues --  -20.48615 -20.48615 -20.47799 -20.47799  -1.30200
 Alpha  occ. eigenvalues --   -1.30197  -0.92207  -0.92178  -0.47516  -0.47516
 Alpha  occ. eigenvalues --   -0.44944  -0.44933  -0.42332  -0.42138  -0.26347
 Alpha  occ. eigenvalues --   -0.26346  -0.07580
 Alpha virt. eigenvalues --    0.00694   0.49881   0.50093   0.89764   0.90219
 Alpha virt. eigenvalues --    0.92631   0.92639   0.92769   0.92776   0.95955
 Alpha virt. eigenvalues --    0.96271   1.01906   1.01929   1.02112   1.02134

 Mulliken charges and spin densities:
               1          2
     1  O   -0.222956   0.260668
     2  O   -0.277044   0.239332
     3  O   -0.277044   0.239332
     4  O   -0.222956   0.260668
 Sum of Mulliken charges =  -1.00000   1.00000

 Dipole moment (field-independent basis, Debye):
    X=             -0.0000    Y=              0.0000    Z=             -0.0000  Tot=              0.0000
 Quadrupole moment (field-independent basis, Debye-Ang):
   XX=            -21.4422   YY=            -23.7613   ZZ=            -79.6962
   XY=              0.0000   XZ=              0.0000   YZ=              0.0000

 362169\CCSD=-300.1276432\CCSD(T)=-300.1822826\RMSD=1.336e-09\PG=D*H [C
 Normal termination of Gaussian 16 at Sun Jan 15 01:29:43 2023.
