 Gaussian 16, Revision A.03,
 Gaussian 16:  ES64L-G16RevA.03 25-Dec-2016

 ---------------------------------------------------------------
 #p ROCCSD(T)/cc-pVTZ Guess=Read SCF=(VeryTight,CDIIS,VShift=10)
 ---------------------------------------------------------------

 ---------
 O2_O2_250
 ---------
 Symbolic Z-matrix:
 Charge = -1 Multiplicity = 2

                         Standard orientation:
 ---------------------------------------------------------------------
 Center     Atomic      Atomic             Coordinates (Angstroms)
 Number     Number       Type             X           Y           Z
 ---------------------------------------------------------------------
      1          8           0        0.000000    0.000000    2.562398
      2          8           0        0.000000    0.000000    3.914778
      3          8           0        0.000000    0.000000   -3.914778
      4          8           0        0.000000    0.000000   -2.562398
 ---------------------------------------------------------------------

 SCF Done:  E(ROHF) =  -299.131094803     A.U. after    8 cycles
 E2 =    -0.1046977620D+01 EUMP2 =    -0.30017807242282D+03
 CCSD(T)
 CCSD(T)= -0.30018230799D+03

 Unable to determine electronic state:  an orbital has unidentified symmetry.
 Alpha  occ. eigenvalues --  -20.48565 -20.48565 -20.47724 -20.47724  -1.30138
 Alpha  occ. eigenvalues --   -1.30135  -0.92145  -0.92113  -0.47454  -0.47454
 Alpha  occ. eigenvalues --   -0.44881  -0.44867  -0.42275  -0.42071  -0.26284
 Alpha  occ. eigenvalues --   -0.26283  -0.07584
 Alpha virt. eigenvalues --    0.00825   0.49913   0.50195   0.89752   0.90358
 Alpha virt. eigenvalues --    0.92691   0.92702   0.92828   0.92839   0.95972
 Alpha virt. eigenvalues --    0.96407   1.01964   1.01996   1.02171   1.02202

 Mulliken charges and spin densities:
               1          2
     1  O   -0.222126   0.260987
     2  O   -0.277874   0.239013
     3  O   -0.277874   0.239013
     4  O   -0.222126   0.260987
 Sum of Mulliken charges =  -1.00000   1.00000

 Dipole moment (field-independent basis, Debye):
    X=             -0.0000    Y=             -0.0000    Z=             -0.0000  Tot=              0.0000
 Quadrupole moment (field-independent basis, Debye-Ang):
   XX=            -21.4425   YY=            -23.7615   ZZ=            -78.1810
   XY=              0.0000   XZ=              0.0000   YZ=              0.0000

 362536\CCSD=-300.1276698\CCSD(T)=-300.182308\RMSD=1.398e-09\PG=D*H [C*
 Normal termination of Gaussian 16 at Sun Jan 15 01:20:19 2023.
