 Gaussian 16, Revision A.03,
 Gaussian 16:  ES64L-G16RevA.03 25-Dec-2016

 ---------------------------------------------------------------
 #p ROCCSD(T)/cc-pVTZ Guess=Read SCF=(VeryTight,CDIIS,VShift=10)
 ---------------------------------------------------------------

 --------
 O2_O2_37
 --------
 Symbolic Z-matrix:
 Charge = -1 Multiplicity = 2

                         Standard orientation:
 ---------------------------------------------------------------------
 Center     Atomic      Atomic             Coordinates (Angstroms)
 Number     Number       Type             X           Y           Z
 ---------------------------------------------------------------------
      1          8           0        0.000000    0.000000    1.054510
      2          8           0        0.000000    0.000000    2.406890
      3          8           0        0.000000    0.000000   -2.406890
      4          8           0        0.000000    0.000000   -1.054510
 ---------------------------------------------------------------------

 SCF Done:  E(ROHF) =  -299.012490130     A.U. after    9 cycles
 E2 =    -0.1351786014D+01 EUMP2 =    -0.30036427614368D+03
 CCSD(T)
 CCSD(T)= -0.30023031880D+03

 Unable to determine electronic state:  an orbital has unidentified symmetry.
 Alpha  occ. eigenvalues --  -20.50762 -20.50760 -20.43186 -20.43186  -1.29122
 Alpha  occ. eigenvalues --   -1.27945  -0.92475  -0.87738  -0.48330  -0.46700
 Alpha  occ. eigenvalues --   -0.46530  -0.39965  -0.38203  -0.36949  -0.26236
 Alpha  occ. eigenvalues --   -0.24530  -0.09138
 Alpha virt. eigenvalues --    0.11028   0.51301   0.59234   0.90133   0.91668
 Alpha virt. eigenvalues --    0.92810   0.94099   0.96452   0.98113   1.00488
 Alpha virt. eigenvalues --    1.02439   1.10123   1.12859   1.15039   1.15189

 Mulliken charges and spin densities:
               1          2
     1  O   -0.110295   0.341924
     2  O   -0.389705   0.158076
     3  O   -0.389705   0.158076
     4  O   -0.110295   0.341924
 Sum of Mulliken charges =  -1.00000   1.00000

 Dipole moment (field-independent basis, Debye):
    X=             -0.0000    Y=              0.0000    Z=              0.0000  Tot=              0.0000
 Quadrupole moment (field-independent basis, Debye-Ang):
   XX=            -22.6078   YY=            -23.1522   ZZ=            -45.3843
   XY=              0.0000   XZ=              0.0000   YZ=              0.0000

 67246\CCSD=-300.1165621\CCSD(T)=-300.2303188\RMSD=5.016e-09\PG=D*H [C*
 Normal termination of Gaussian 16 at Sat Jan 14 20:18:55 2023.
