 Gaussian 16, Revision A.03,
 Gaussian 16:  ES64L-G16RevA.03 25-Dec-2016

 ---------------------------------------------------------------
 #p ROCCSD(T)/cc-pVTZ Guess=Read SCF=(VeryTight,CDIIS,VShift=10)
 ---------------------------------------------------------------

 ---------
 O2_O2_157
 ---------
 Symbolic Z-matrix:
 Charge = -1 Multiplicity = 2

                         Standard orientation:
 ---------------------------------------------------------------------
 Center     Atomic      Atomic             Coordinates (Angstroms)
 Number     Number       Type             X           Y           Z
 ---------------------------------------------------------------------
      1          8           0        0.000000    0.000000    1.904024
      2          8           0        0.000000    0.000000    3.256404
      3          8           0        0.000000    0.000000   -3.256404
      4          8           0        0.000000    0.000000   -1.904024
 ---------------------------------------------------------------------

 SCF Done:  E(ROHF) =  -299.132163367     A.U. after    8 cycles
 E2 =    -0.1045205515D+01 EUMP2 =    -0.30017736888226D+03
 CCSD(T)
 CCSD(T)= -0.30018358163D+03

 Unable to determine electronic state:  an orbital has unidentified symmetry.
 Alpha  occ. eigenvalues --  -20.47780 -20.47779 -20.46433 -20.46432  -1.29117
 Alpha  occ. eigenvalues --   -1.29098  -0.91131  -0.90999  -0.46442  -0.46416
 Alpha  occ. eigenvalues --   -0.43941  -0.43644  -0.41361  -0.40919  -0.25268
 Alpha  occ. eigenvalues --   -0.25205  -0.07736
 Alpha virt. eigenvalues --    0.03116   0.48882   0.53076   0.85057   0.93048
 Alpha virt. eigenvalues --    0.93425   0.93556   0.93946   0.94082   0.94958
 Alpha virt. eigenvalues --    1.02277   1.02501   1.03850   1.04034   1.07077

 Mulliken charges and spin densities:
               1          2
     1  O   -0.206480   0.266484
     2  O   -0.293520   0.233516
     3  O   -0.293520   0.233516
     4  O   -0.206480   0.266484
 Sum of Mulliken charges =  -1.00000   1.00000

 Dipole moment (field-independent basis, Debye):
    X=             -0.0000    Y=              0.0000    Z=             -0.0000  Tot=              0.0000
 Quadrupole moment (field-independent basis, Debye-Ang):
   XX=            -21.4532   YY=            -23.7661   ZZ=            -60.3927
   XY=              0.0000   XZ=              0.0000   YZ=              0.0000

 376973\CCSD=-300.1289121\CCSD(T)=-300.1835816\RMSD=3.415e-09\PG=D*H [C
 Normal termination of Gaussian 16 at Sat Jan 14 23:16:10 2023.
