 Gaussian 16, Revision A.03,
 Gaussian 16:  ES64L-G16RevA.03 25-Dec-2016

 ---------------------------------------------------------------
 #p ROCCSD(T)/cc-pVTZ Guess=Read SCF=(VeryTight,CDIIS,VShift=10)
 ---------------------------------------------------------------

 ---------
 O2_O2_231
 ---------
 Symbolic Z-matrix:
 Charge = -1 Multiplicity = 2

                         Standard orientation:
 ---------------------------------------------------------------------
 Center     Atomic      Atomic             Coordinates (Angstroms)
 Number     Number       Type             X           Y           Z
 ---------------------------------------------------------------------
      1          8           0        0.000000    0.000000    2.427892
      2          8           0        0.000000    0.000000    3.780272
      3          8           0        0.000000    0.000000   -3.780272
      4          8           0        0.000000    0.000000   -2.427892
 ---------------------------------------------------------------------

 SCF Done:  E(ROHF) =  -299.131176368     A.U. after    8 cycles
 E2 =    -0.1046674695D+01 EUMP2 =    -0.30017785106362D+03
 CCSD(T)
 CCSD(T)= -0.30018239752D+03

 Unable to determine electronic state:  an orbital has unidentified symmetry.
 Alpha  occ. eigenvalues --  -20.48422 -20.48422 -20.47505 -20.47505  -1.29960
 Alpha  occ. eigenvalues --   -1.29956  -0.91965  -0.91927  -0.47277  -0.47275
 Alpha  occ. eigenvalues --   -0.44703  -0.44675  -0.42112  -0.41878  -0.26104
 Alpha  occ. eigenvalues --   -0.26101  -0.07598
 Alpha virt. eigenvalues --    0.01202   0.49953   0.50534   0.89591   0.90841
 Alpha virt. eigenvalues --    0.92857   0.92884   0.92994   0.93021   0.95941
 Alpha virt. eigenvalues --    0.96934   1.02121   1.02202   1.02328   1.02406

 Mulliken charges and spin densities:
               1          2
     1  O   -0.219677   0.261920
     2  O   -0.280323   0.238080
     3  O   -0.280323   0.238080
     4  O   -0.219677   0.261920
 Sum of Mulliken charges =  -1.00000   1.00000

 Dipole moment (field-independent basis, Debye):
    X=             -0.0000    Y=             -0.0000    Z=             -0.0000  Tot=              0.0000
 Quadrupole moment (field-independent basis, Debye-Ang):
   XX=            -21.4433   YY=            -23.7622   ZZ=            -74.1926
   XY=              0.0000   XZ=              0.0000   YZ=              0.0000

 363754\CCSD=-300.1277617\CCSD(T)=-300.1823975\RMSD=1.538e-09\PG=D*H [C
 Normal termination of Gaussian 16 at Sun Jan 15 00:54:09 2023.
