 Gaussian 16, Revision A.03,
 Gaussian 16:  ES64L-G16RevA.03 25-Dec-2016

 ---------------------------------------------------------------
 #p ROCCSD(T)/cc-pVTZ Guess=Read SCF=(VeryTight,CDIIS,VShift=10)
 ---------------------------------------------------------------

 ---------
 O2_O2_102
 ---------
 Symbolic Z-matrix:
 Charge = -1 Multiplicity = 2

                         Standard orientation:
 ---------------------------------------------------------------------
 Center     Atomic      Atomic             Coordinates (Angstroms)
 Number     Number       Type             X           Y           Z
 ---------------------------------------------------------------------
      1          8           0        0.000000    0.000000    1.514663
      2          8           0        0.000000    0.000000    2.867043
      3          8           0        0.000000    0.000000   -2.867043
      4          8           0        0.000000    0.000000   -1.514663
 ---------------------------------------------------------------------

 SCF Done:  E(ROHF) =  -298.965761560     A.U. after   11 cycles
 E2 =    -0.1582994293D+01 EUMP2 =    -0.30054875585258D+03
 CCSD(T)
 CCSD(T)= -0.30022702005D+03

 Unable to determine electronic state:  an orbital has unidentified symmetry.
 Alpha  occ. eigenvalues --  -20.49732 -20.49731 -20.46172 -20.46172  -1.29337
 Alpha  occ. eigenvalues --   -1.29236  -0.91328  -0.90745  -0.48219  -0.48050
 Alpha  occ. eigenvalues --   -0.44414  -0.43029  -0.39923  -0.39021  -0.26872
 Alpha  occ. eigenvalues --   -0.26659  -0.07138
 Alpha virt. eigenvalues --    0.06284   0.48569   0.55001   0.85324   0.91486
 Alpha virt. eigenvalues --    0.92679   0.93500   0.94292   0.94775   0.96050
 Alpha virt. eigenvalues --    0.99973   1.02074   1.06604   1.08729   1.12978

 Mulliken charges and spin densities:
               1          2
     1  O   -0.178901   0.303722
     2  O   -0.321099   0.196278
     3  O   -0.321099   0.196278
     4  O   -0.178901   0.303722
 Sum of Mulliken charges =  -1.00000   1.00000

 Dipole moment (field-independent basis, Debye):
    X=             -0.0000    Y=              0.0000    Z=             -0.0000  Tot=              0.0000
 Quadrupole moment (field-independent basis, Debye-Ang):
   XX=            -22.4909   YY=            -23.0982   ZZ=            -52.5266
   XY=              0.0000   XZ=              0.0000   YZ=              0.0000

 820623\CCSD=-300.0937136\CCSD(T)=-300.22702\RMSD=7.225e-09\PG=D*H [C*(
 Normal termination of Gaussian 16 at Sat Jan 14 21:56:41 2023.
