 Gaussian 16, Revision A.03,
 Gaussian 16:  ES64L-G16RevA.03 25-Dec-2016

 ---------------------------------------------------------------
 #p ROCCSD(T)/cc-pVTZ Guess=Read SCF=(VeryTight,CDIIS,VShift=10)
 ---------------------------------------------------------------

 ---------
 O2_O2_132
 ---------
 Symbolic Z-matrix:
 Charge = -1 Multiplicity = 2

                         Standard orientation:
 ---------------------------------------------------------------------
 Center     Atomic      Atomic             Coordinates (Angstroms)
 Number     Number       Type             X           Y           Z
 ---------------------------------------------------------------------
      1          8           0        0.000000    0.000000    1.727042
      2          8           0        0.000000    0.000000    3.079422
      3          8           0        0.000000    0.000000   -3.079422
      4          8           0        0.000000    0.000000   -1.727042
 ---------------------------------------------------------------------

 SCF Done:  E(ROHF) =  -299.133048930     A.U. after    8 cycles
 E2 =    -0.1044591656D+01 EUMP2 =    -0.30017764058619D+03
 CCSD(T)
 CCSD(T)= -0.30018470209D+03

 Unable to determine electronic state:  an orbital has unidentified symmetry.
 Alpha  occ. eigenvalues --  -20.47539 -20.47538 -20.45963 -20.45963  -1.28770
 Alpha  occ. eigenvalues --   -1.28733  -0.90815  -0.90567  -0.46106  -0.46045
 Alpha  occ. eigenvalues --   -0.43714  -0.43106  -0.41067  -0.40486  -0.24942
 Alpha  occ. eigenvalues --   -0.24801  -0.07851
 Alpha virt. eigenvalues --    0.04013   0.48515   0.54272   0.83724   0.93180
 Alpha virt. eigenvalues --    0.93408   0.93525   0.94537   0.94668   0.94842
 Alpha virt. eigenvalues --    1.01860   1.02104   1.05225   1.05386   1.13023

 Mulliken charges and spin densities:
               1          2
     1  O   -0.200007   0.268219
     2  O   -0.299993   0.231781
     3  O   -0.299993   0.231781
     4  O   -0.200007   0.268219
 Sum of Mulliken charges =  -1.00000   1.00000

 Dipole moment (field-independent basis, Debye):
    X=             -0.0000    Y=              0.0000    Z=              0.0000  Tot=              0.0000
 Quadrupole moment (field-independent basis, Debye-Ang):
   XX=            -21.4623   YY=            -23.7681   ZZ=            -56.3662
   XY=              0.0000   XZ=              0.0000   YZ=              0.0000

 388589\CCSD=-300.1299788\CCSD(T)=-300.1847021\RMSD=7.249e-09\PG=D*H [C
 Normal termination of Gaussian 16 at Sat Jan 14 22:41:44 2023.
