 Gaussian 16, Revision A.03,
 Gaussian 16:  ES64L-G16RevA.03 25-Dec-2016

 ---------------------------------------------------------------
 #p ROCCSD(T)/cc-pVTZ Guess=Read SCF=(VeryTight,CDIIS,VShift=10)
 ---------------------------------------------------------------

 ---------
 O2_O2_155
 ---------
 Symbolic Z-matrix:
 Charge = -1 Multiplicity = 2

                         Standard orientation:
 ---------------------------------------------------------------------
 Center     Atomic      Atomic             Coordinates (Angstroms)
 Number     Number       Type             X           Y           Z
 ---------------------------------------------------------------------
      1          8           0        0.000000    0.000000    1.889866
      2          8           0        0.000000    0.000000    3.242246
      3          8           0        0.000000    0.000000   -3.242246
      4          8           0        0.000000    0.000000   -1.889866
 ---------------------------------------------------------------------

 SCF Done:  E(ROHF) =  -299.132218909     A.U. after    8 cycles
 E2 =    -0.1045159491D+01 EUMP2 =    -0.30017737840000D+03
 CCSD(T)
 CCSD(T)= -0.30018365143D+03

 Unable to determine electronic state:  an orbital has unidentified symmetry.
 Alpha  occ. eigenvalues --  -20.47761 -20.47760 -20.46397 -20.46397  -1.29090
 Alpha  occ. eigenvalues --   -1.29071  -0.91106  -0.90968  -0.46416  -0.46388
 Alpha  occ. eigenvalues --   -0.43921  -0.43606  -0.41338  -0.40887  -0.25242
 Alpha  occ. eigenvalues --   -0.25176  -0.07743
 Alpha virt. eigenvalues --    0.03181   0.48836   0.53169   0.84887   0.93072
 Alpha virt. eigenvalues --    0.93431   0.93562   0.93988   0.94124   0.94941
 Alpha virt. eigenvalues --    1.02255   1.02481   1.03935   1.04119   1.07680

 Mulliken charges and spin densities:
               1          2
     1  O   -0.206013   0.266623
     2  O   -0.293987   0.233377
     3  O   -0.293987   0.233377
     4  O   -0.206013   0.266623
 Sum of Mulliken charges =  -1.00000   1.00000

 Dipole moment (field-independent basis, Debye):
    X=             -0.0000    Y=             -0.0000    Z=              0.0000  Tot=              0.0000
 Quadrupole moment (field-independent basis, Debye-Ang):
   XX=            -21.4538   YY=            -23.7662   ZZ=            -60.0584
   XY=              0.0000   XZ=              0.0000   YZ=              0.0000

 377705\CCSD=-300.1289787\CCSD(T)=-300.1836514\RMSD=3.660e-09\PG=D*H [C
 Normal termination of Gaussian 16 at Sat Jan 14 23:13:35 2023.
