 Gaussian 16, Revision A.03,
 Gaussian 16:  ES64L-G16RevA.03 25-Dec-2016

 ---------------------------------------------------------------
 #p ROCCSD(T)/cc-pVTZ Guess=Read SCF=(VeryTight,CDIIS,VShift=10)
 ---------------------------------------------------------------

 ---------
 O2_O2_289
 ---------
 Symbolic Z-matrix:
 Charge = -1 Multiplicity = 2

                         Standard orientation:
 ---------------------------------------------------------------------
 Center     Atomic      Atomic             Coordinates (Angstroms)
 Number     Number       Type             X           Y           Z
 ---------------------------------------------------------------------
      1          8           0        0.000000    0.000000    2.838490
      2          8           0        0.000000    0.000000    4.190871
      3          8           0        0.000000    0.000000   -4.190871
      4          8           0        0.000000    0.000000   -2.838490
 ---------------------------------------------------------------------

 SCF Done:  E(ROHF) =  -299.130990275     A.U. after    8 cycles
 E2 =    -0.1047517553D+01 EUMP2 =    -0.30017850782846D+03
 CCSD(T)
 CCSD(T)= -0.30018219790D+03

 Unable to determine electronic state:  an orbital has unidentified symmetry.
 Alpha  occ. eigenvalues --  -20.48830 -20.48830 -20.48116 -20.48116  -1.30462
 Alpha  occ. eigenvalues --   -1.30460  -0.92472  -0.92449  -0.47779  -0.47778
 Alpha  occ. eigenvalues --   -0.45212  -0.45209  -0.42576  -0.42418  -0.26613
 Alpha  occ. eigenvalues --   -0.26613  -0.07564
 Alpha virt. eigenvalues --    0.00146   0.49680   0.49730   0.89655   0.89764
 Alpha virt. eigenvalues --    0.92377   0.92379   0.92515   0.92516   0.95777
 Alpha virt. eigenvalues --    0.95843   1.01649   1.01653   1.01856   1.01860

 Mulliken charges and spin densities:
               1          2
     1  O   -0.226323   0.259364
     2  O   -0.273677   0.240636
     3  O   -0.273677   0.240636
     4  O   -0.226323   0.259364
 Sum of Mulliken charges =  -1.00000   1.00000

 Dipole moment (field-independent basis, Debye):
    X=             -0.0000    Y=              0.0000    Z=             -0.0000  Tot=              0.0000
 Quadrupole moment (field-independent basis, Debye-Ang):
   XX=            -21.4413   YY=            -23.7606   ZZ=            -86.9356
   XY=              0.0000   XZ=              0.0000   YZ=              0.0000

 360849\CCSD=-300.1275526\CCSD(T)=-300.1821979\RMSD=1.077e-09\PG=D*H [C
 Normal termination of Gaussian 16 at Sun Jan 15 02:13:26 2023.
