 Gaussian 16, Revision A.03,
 Gaussian 16:  ES64L-G16RevA.03 25-Dec-2016

 ---------------------------------------------------------------
 #p ROCCSD(T)/cc-pVTZ Guess=Read SCF=(VeryTight,CDIIS,VShift=10)
 ---------------------------------------------------------------

 ---------
 O2_O2_191
 ---------
 Symbolic Z-matrix:
 Charge = -1 Multiplicity = 2

                         Standard orientation:
 ---------------------------------------------------------------------
 Center     Atomic      Atomic             Coordinates (Angstroms)
 Number     Number       Type             X           Y           Z
 ---------------------------------------------------------------------
      1          8           0        0.000000    0.000000    2.144720
      2          8           0        0.000000    0.000000    3.497100
      3          8           0        0.000000    0.000000   -3.497100
      4          8           0        0.000000    0.000000   -2.144720
 ---------------------------------------------------------------------

 SCF Done:  E(ROHF) =  -299.131509090     A.U. after    8 cycles
 E2 =    -0.1045936338D+01 EUMP2 =    -0.30017744542770D+03
 CCSD(T)
 CCSD(T)= -0.30018277960D+03

 Unable to determine electronic state:  an orbital has unidentified symmetry.
 Alpha  occ. eigenvalues --  -20.48090 -20.48090 -20.46975 -20.46975  -1.29536
 Alpha  occ. eigenvalues --   -1.29528  -0.91540  -0.91474  -0.46855  -0.46847
 Alpha  occ. eigenvalues --   -0.44296  -0.44190  -0.41729  -0.41407  -0.25678
 Alpha  occ. eigenvalues --   -0.25660  -0.07649
 Alpha virt. eigenvalues --    0.02131   0.49642   0.51660   0.88015   0.92236
 Alpha virt. eigenvalues --    0.93210   0.93347   0.93360   0.93498   0.95436
 Alpha virt. eigenvalues --    0.99914   1.02371   1.02582   1.02826   1.03025

 Mulliken charges and spin densities:
               1          2
     1  O   -0.213407   0.264218
     2  O   -0.286593   0.235782
     3  O   -0.286593   0.235782
     4  O   -0.213407   0.264218
 Sum of Mulliken charges =  -1.00000   1.00000

 Dipole moment (field-independent basis, Debye):
    X=             -0.0000    Y=              0.0000    Z=             -0.0000  Tot=              0.0000
 Quadrupole moment (field-independent basis, Debye-Ang):
   XX=            -21.4467   YY=            -23.7639   ZZ=            -66.3896
   XY=              0.0000   XZ=              0.0000   YZ=              0.0000

 8328\CCSD=-300.1281406\CCSD(T)=-300.1827796\RMSD=1.534e-09\PG=D*H [C*(
 Normal termination of Gaussian 16 at Sun Jan 15 00:00:46 2023.
