 Gaussian 16, Revision A.03,
 Gaussian 16:  ES64L-G16RevA.03 25-Dec-2016

 ---------------------------------------------------------------
 #p ROCCSD(T)/cc-pVTZ Guess=Read SCF=(VeryTight,CDIIS,VShift=10)
 ---------------------------------------------------------------

 ---------
 O2_O2_128
 ---------
 Symbolic Z-matrix:
 Charge = -1 Multiplicity = 2

                         Standard orientation:
 ---------------------------------------------------------------------
 Center     Atomic      Atomic             Coordinates (Angstroms)
 Number     Number       Type             X           Y           Z
 ---------------------------------------------------------------------
      1          8           0        0.000000    0.000000    1.698725
      2          8           0        0.000000    0.000000    3.051105
      3          8           0        0.000000    0.000000   -3.051105
      4          8           0        0.000000    0.000000   -1.698725
 ---------------------------------------------------------------------

 SCF Done:  E(ROHF) =  -299.133235566     A.U. after    8 cycles
 E2 =    -0.1044483335D+01 EUMP2 =    -0.30017771890098D+03
 CCSD(T)
 CCSD(T)= -0.30018493821D+03

 Unable to determine electronic state:  an orbital has unidentified symmetry.
 Alpha  occ. eigenvalues --  -20.47499 -20.47499 -20.45881 -20.45881  -1.28712
 Alpha  occ. eigenvalues --   -1.28669  -0.90765  -0.90489  -0.46050  -0.45981
 Alpha  occ. eigenvalues --   -0.43685  -0.43004  -0.41018  -0.40409  -0.24889
 Alpha  occ. eigenvalues --   -0.24729  -0.07875
 Alpha virt. eigenvalues --    0.04175   0.48520   0.54470   0.83739   0.93167
 Alpha virt. eigenvalues --    0.93382   0.93495   0.94645   0.94774   0.94840
 Alpha virt. eigenvalues --    1.01765   1.02012   1.05516   1.05672   1.13109

 Mulliken charges and spin densities:
               1          2
     1  O   -0.198822   0.268490
     2  O   -0.301178   0.231510
     3  O   -0.301178   0.231510
     4  O   -0.198822   0.268490
 Sum of Mulliken charges =  -1.00000   1.00000

 Dipole moment (field-independent basis, Debye):
    X=             -0.0000    Y=             -0.0000    Z=              0.0000  Tot=              0.0000
 Quadrupole moment (field-independent basis, Debye-Ang):
   XX=            -21.4642   YY=            -23.7684   ZZ=            -55.7527
   XY=              0.0000   XZ=              0.0000   YZ=              0.0000

 91018\CCSD=-300.1302038\CCSD(T)=-300.1849382\RMSD=8.033e-09\PG=D*H [C*
 Normal termination of Gaussian 16 at Sat Jan 14 22:36:19 2023.
