 Gaussian 16, Revision A.03,
 Gaussian 16:  ES64L-G16RevA.03 25-Dec-2016

 ---------------------------------------------------------------
 #p ROCCSD(T)/cc-pVTZ Guess=Read SCF=(VeryTight,CDIIS,VShift=10)
 ---------------------------------------------------------------

 --------
 O2_O2_82
 --------
 Symbolic Z-matrix:
 Charge = -1 Multiplicity = 2

                         Standard orientation:
 ---------------------------------------------------------------------
 Center     Atomic      Atomic             Coordinates (Angstroms)
 Number     Number       Type             X           Y           Z
 ---------------------------------------------------------------------
      1          8           0        0.000000    0.000000    1.373078
      2          8           0        0.000000    0.000000    2.725458
      3          8           0        0.000000    0.000000   -2.725458
      4          8           0        0.000000    0.000000   -1.373078
 ---------------------------------------------------------------------

 SCF Done:  E(ROHF) =  -298.976938219     A.U. after   11 cycles
 E2 =    -0.1513867224D+01 EUMP2 =    -0.30049080544302D+03
 CCSD(T)
 CCSD(T)= -0.30022833910D+03

 Unable to determine electronic state:  an orbital has unidentified symmetry.
 Alpha  occ. eigenvalues --  -20.49907 -20.49905 -20.45512 -20.45512  -1.29141
 Alpha  occ. eigenvalues --   -1.28935  -0.91272  -0.90185  -0.48072  -0.47735
 Alpha  occ. eigenvalues --   -0.44602  -0.42191  -0.39790  -0.38553  -0.26646
 Alpha  occ. eigenvalues --   -0.26199  -0.07500
 Alpha virt. eigenvalues --    0.07360   0.49408   0.56032   0.90228   0.90742
 Alpha virt. eigenvalues --    0.92291   0.92914   0.94844   0.94935   0.96671
 Alpha virt. eigenvalues --    0.99673   1.01711   1.09049   1.11196   1.13071

 Mulliken charges and spin densities:
               1          2
     1  O   -0.165826   0.312886
     2  O   -0.334174   0.187114
     3  O   -0.334174   0.187114
     4  O   -0.165826   0.312886
 Sum of Mulliken charges =  -1.00000   1.00000

 Dipole moment (field-independent basis, Debye):
    X=             -0.0000    Y=             -0.0000    Z=             -0.0000  Tot=              0.0000
 Quadrupole moment (field-independent basis, Debye-Ang):
   XX=            -22.5237   YY=            -23.1155   ZZ=            -49.9254
   XY=              0.0000   XZ=              0.0000   YZ=              0.0000

 25139\CCSD=-300.0994121\CCSD(T)=-300.2283391\RMSD=9.097e-09\PG=D*H [C*
 Normal termination of Gaussian 16 at Sat Jan 14 21:26:19 2023.
