 Gaussian 16, Revision A.03,
 Gaussian 16:  ES64L-G16RevA.03 25-Dec-2016

 ---------------------------------------------------------------
 #p ROCCSD(T)/cc-pVTZ Guess=Read SCF=(VeryTight,CDIIS,VShift=10)
 ---------------------------------------------------------------

 ---------
 O2_O2_248
 ---------
 Symbolic Z-matrix:
 Charge = -1 Multiplicity = 2

                         Standard orientation:
 ---------------------------------------------------------------------
 Center     Atomic      Atomic             Coordinates (Angstroms)
 Number     Number       Type             X           Y           Z
 ---------------------------------------------------------------------
      1          8           0        0.000000    0.000000    2.548240
      2          8           0        0.000000    0.000000    3.900620
      3          8           0        0.000000    0.000000   -3.900620
      4          8           0        0.000000    0.000000   -2.548240
 ---------------------------------------------------------------------

 SCF Done:  E(ROHF) =  -299.131102090     A.U. after    8 cycles
 E2 =    -0.1046947080D+01 EUMP2 =    -0.30017804917059D+03
 CCSD(T)
 CCSD(T)= -0.30018231589D+03

 Unable to determine electronic state:  an orbital has unidentified symmetry.
 Alpha  occ. eigenvalues --  -20.48550 -20.48550 -20.47702 -20.47702  -1.30120
 Alpha  occ. eigenvalues --   -1.30117  -0.92126  -0.92095  -0.47436  -0.47436
 Alpha  occ. eigenvalues --   -0.44863  -0.44848  -0.42258  -0.42051  -0.26266
 Alpha  occ. eigenvalues --   -0.26264  -0.07585
 Alpha virt. eigenvalues --    0.00863   0.49920   0.50226   0.89745   0.90401
 Alpha virt. eigenvalues --    0.92708   0.92720   0.92845   0.92857   0.95974
 Alpha virt. eigenvalues --    0.96451   1.01981   1.02016   1.02187   1.02222

 Mulliken charges and spin densities:
               1          2
     1  O   -0.221882   0.261081
     2  O   -0.278118   0.238919
     3  O   -0.278118   0.238919
     4  O   -0.221882   0.261081
 Sum of Mulliken charges =  -1.00000   1.00000

 Dipole moment (field-independent basis, Debye):
    X=             -0.0000    Y=             -0.0000    Z=             -0.0000  Tot=              0.0000
 Quadrupole moment (field-independent basis, Debye-Ang):
   XX=            -21.4426   YY=            -23.7616   ZZ=            -77.7526
   XY=              0.0000   XZ=              0.0000   YZ=              0.0000

 362648\CCSD=-300.127678\CCSD(T)=-300.1823159\RMSD=1.415e-09\PG=D*H [C*
 Normal termination of Gaussian 16 at Sun Jan 15 01:17:37 2023.
