 Gaussian 16, Revision A.03,
 Gaussian 16:  ES64L-G16RevA.03 25-Dec-2016

 ---------------------------------------------------------------
 #p ROCCSD(T)/cc-pVTZ Guess=Read SCF=(VeryTight,CDIIS,VShift=10)
 ---------------------------------------------------------------

 ---------
 O2_O2_113
 ---------
 Symbolic Z-matrix:
 Charge = -1 Multiplicity = 2

                         Standard orientation:
 ---------------------------------------------------------------------
 Center     Atomic      Atomic             Coordinates (Angstroms)
 Number     Number       Type             X           Y           Z
 ---------------------------------------------------------------------
      1          8           0        0.000000    0.000000    1.592536
      2          8           0        0.000000    0.000000    2.944916
      3          8           0        0.000000    0.000000   -2.944916
      4          8           0        0.000000    0.000000   -1.592536
 ---------------------------------------------------------------------

 SCF Done:  E(ROHF) =  -298.960878462     A.U. after   11 cycles
 E2 =    -0.1619873356D+01 EUMP2 =    -0.30058075181744D+03
 CCSD(T)
 CCSD(T)= -0.30022663167D+03

 Unable to determine electronic state:  partially filled degenerate orbitals.
 Alpha  occ. eigenvalues --  -20.49684 -20.49683 -20.46482 -20.46482  -1.29459
 Alpha  occ. eigenvalues --   -1.29389  -0.91411  -0.90991  -0.48324  -0.48207
 Alpha  occ. eigenvalues --   -0.44399  -0.43381  -0.40016  -0.39245  -0.27004
 Alpha  occ. eigenvalues --   -0.26874  -0.06995
 Alpha virt. eigenvalues --    0.05778   0.48242   0.54472   0.83834   0.91800
 Alpha virt. eigenvalues --    0.92841   0.93752   0.93950   0.94736   0.95719
 Alpha virt. eigenvalues --    1.00224   1.02353   1.05487   1.07602   1.12895

 Mulliken charges and spin densities:
               1          2
     1  O   -0.184474   0.299531
     2  O   -0.315526   0.200469
     3  O   -0.315526   0.200469
     4  O   -0.184474   0.299531
 Sum of Mulliken charges =  -1.00000   1.00000

 Dipole moment (field-independent basis, Debye):
    X=             -0.0000    Y=              0.0000    Z=              0.0000  Tot=              0.0000
 Quadrupole moment (field-independent basis, Debye-Ang):
   XX=            -22.4766   YY=            -23.0906   ZZ=            -54.0644
   XY=              0.0000   XZ=              0.0000   YZ=              0.0000

 245784\CCSD=-300.091348\CCSD(T)=-300.2266317\RMSD=6.132e-09\PG=D*H [C*
 Normal termination of Gaussian 16 at Sat Jan 14 22:14:48 2023.
