 Gaussian 16, Revision A.03,
 Gaussian 16:  ES64L-G16RevA.03 25-Dec-2016

 ---------------------------------------------------------------
 #p ROCCSD(T)/cc-pVTZ Guess=Read SCF=(VeryTight,CDIIS,VShift=10)
 ---------------------------------------------------------------

 ---------
 O2_O2_144
 ---------
 Symbolic Z-matrix:
 Charge = -1 Multiplicity = 2

                         Standard orientation:
 ---------------------------------------------------------------------
 Center     Atomic      Atomic             Coordinates (Angstroms)
 Number     Number       Type             X           Y           Z
 ---------------------------------------------------------------------
      1          8           0        0.000000    0.000000    1.811994
      2          8           0        0.000000    0.000000    3.164374
      3          8           0        0.000000    0.000000   -3.164374
      4          8           0        0.000000    0.000000   -1.811994
 ---------------------------------------------------------------------

 SCF Done:  E(ROHF) =  -299.132568621     A.U. after    8 cycles
 E2 =    -0.1044897979D+01 EUMP2 =    -0.30017746660059D+03
 CCSD(T)
 CCSD(T)= -0.30018409335D+03

 Unable to determine electronic state:  an orbital has unidentified symmetry.
 Alpha  occ. eigenvalues --  -20.47656 -20.47655 -20.46197 -20.46197  -1.28941
 Alpha  occ. eigenvalues --   -1.28915  -0.90967  -0.90786  -0.46270  -0.46230
 Alpha  occ. eigenvalues --   -0.43815  -0.43383  -0.41210  -0.40703  -0.25100
 Alpha  occ. eigenvalues --   -0.25005  -0.07788
 Alpha virt. eigenvalues --    0.03560   0.48621   0.53689   0.84110   0.93164
 Alpha virt. eigenvalues --    0.93444   0.93570   0.94235   0.94369   0.94873
 Alpha virt. eigenvalues --    1.02100   1.02334   1.04477   1.04651   1.11275

 Mulliken charges and spin densities:
               1          2
     1  O   -0.203295   0.267389
     2  O   -0.296705   0.232611
     3  O   -0.296705   0.232611
     4  O   -0.203295   0.267389
 Sum of Mulliken charges =  -1.00000   1.00000

 Dipole moment (field-independent basis, Debye):
    X=             -0.0000    Y=              0.0000    Z=             -0.0000  Tot=              0.0000
 Quadrupole moment (field-independent basis, Debye-Ang):
   XX=            -21.4573   YY=            -23.7671   ZZ=            -58.2577
   XY=              0.0000   XZ=              0.0000   YZ=              0.0000

 382305\CCSD=-300.1293994\CCSD(T)=-300.1840933\RMSD=5.219e-09\PG=D*H [C
 Normal termination of Gaussian 16 at Sat Jan 14 22:57:58 2023.
