 Gaussian 16, Revision A.03,
 Gaussian 16:  ES64L-G16RevA.03 25-Dec-2016

 ---------------------------------------------------------------
 #p ROCCSD(T)/cc-pVTZ Guess=Read SCF=(VeryTight,CDIIS,VShift=10)
 ---------------------------------------------------------------

 ---------
 O2_O2_159
 ---------
 Symbolic Z-matrix:
 Charge = -1 Multiplicity = 2

                         Standard orientation:
 ---------------------------------------------------------------------
 Center     Atomic      Atomic             Coordinates (Angstroms)
 Number     Number       Type             X           Y           Z
 ---------------------------------------------------------------------
      1          8           0        0.000000    0.000000    1.918183
      2          8           0        0.000000    0.000000    3.270563
      3          8           0        0.000000    0.000000   -3.270563
      4          8           0        0.000000    0.000000   -1.918183
 ---------------------------------------------------------------------

 SCF Done:  E(ROHF) =  -299.132110088     A.U. after    8 cycles
 E2 =    -0.1045251139D+01 EUMP2 =    -0.30017736122786D+03
 CCSD(T)
 CCSD(T)= -0.30018351465D+03

 Unable to determine electronic state:  an orbital has unidentified symmetry.
 Alpha  occ. eigenvalues --  -20.47799 -20.47798 -20.46467 -20.46467  -1.29143
 Alpha  occ. eigenvalues --   -1.29126  -0.91156  -0.91030  -0.46467  -0.46444
 Alpha  occ. eigenvalues --   -0.43961  -0.43681  -0.41384  -0.40950  -0.25293
 Alpha  occ. eigenvalues --   -0.25235  -0.07729
 Alpha virt. eigenvalues --    0.03051   0.48929   0.52985   0.85232   0.93020
 Alpha virt. eigenvalues --    0.93418   0.93550   0.93905   0.94041   0.94976
 Alpha virt. eigenvalues --    1.02296   1.02519   1.03768   1.03954   1.06494

 Mulliken charges and spin densities:
               1          2
     1  O   -0.206940   0.266346
     2  O   -0.293060   0.233654
     3  O   -0.293060   0.233654
     4  O   -0.206940   0.266346
 Sum of Mulliken charges =  -1.00000   1.00000

 Dipole moment (field-independent basis, Debye):
    X=             -0.0000    Y=             -0.0000    Z=             -0.0000  Tot=              0.0000
 Quadrupole moment (field-independent basis, Debye-Ang):
   XX=            -21.4527   YY=            -23.7659   ZZ=            -60.7290
   XY=              0.0000   XZ=              0.0000   YZ=              0.0000

 376271\CCSD=-300.1288482\CCSD(T)=-300.1835146\RMSD=3.187e-09\PG=D*H [C
 Normal termination of Gaussian 16 at Sat Jan 14 23:18:49 2023.
