 Gaussian 16, Revision A.03,
 Gaussian 16:  ES64L-G16RevA.03 25-Dec-2016

 ---------------------------------------------------------------
 #p ROCCSD(T)/cc-pVTZ Guess=Read SCF=(VeryTight,CDIIS,VShift=10)
 ---------------------------------------------------------------

 --------
 O2_O2_83
 --------
 Symbolic Z-matrix:
 Charge = -1 Multiplicity = 2

                         Standard orientation:
 ---------------------------------------------------------------------
 Center     Atomic      Atomic             Coordinates (Angstroms)
 Number     Number       Type             X           Y           Z
 ---------------------------------------------------------------------
      1          8           0        0.000000    0.000000    1.380157
      2          8           0        0.000000    0.000000    2.732537
      3          8           0        0.000000    0.000000   -2.732537
      4          8           0        0.000000    0.000000   -1.380157
 ---------------------------------------------------------------------

 SCF Done:  E(ROHF) =  -298.976300397     A.U. after   11 cycles
 E2 =    -0.1517384939D+01 EUMP2 =    -0.30049368533598D+03
 CCSD(T)
 CCSD(T)= -0.30022825465D+03

 Unable to determine electronic state:  an orbital has unidentified symmetry.
 Alpha  occ. eigenvalues --  -20.49895 -20.49894 -20.45549 -20.45549  -1.29149
 Alpha  occ. eigenvalues --   -1.28951  -0.91271  -0.90218  -0.48077  -0.47752
 Alpha  occ. eigenvalues --   -0.44586  -0.42241  -0.39795  -0.38579  -0.26657
 Alpha  occ. eigenvalues --   -0.26225  -0.07478
 Alpha virt. eigenvalues --    0.07301   0.49362   0.55977   0.89914   0.90781
 Alpha virt. eigenvalues --    0.92311   0.92944   0.94840   0.94903   0.96640
 Alpha virt. eigenvalues --    0.99681   1.01722   1.08916   1.11063   1.13068

 Mulliken charges and spin densities:
               1          2
     1  O   -0.166591   0.312376
     2  O   -0.333409   0.187624
     3  O   -0.333409   0.187624
     4  O   -0.166591   0.312376
 Sum of Mulliken charges =  -1.00000   1.00000

 Dipole moment (field-independent basis, Debye):
    X=             -0.0000    Y=             -0.0000    Z=             -0.0000  Tot=              0.0000
 Quadrupole moment (field-independent basis, Debye-Ang):
   XX=            -22.5219   YY=            -23.1145   ZZ=            -50.0489
   XY=              0.0000   XZ=              0.0000   YZ=              0.0000

 03832\CCSD=-300.0990805\CCSD(T)=-300.2282546\RMSD=8.977e-09\PG=D*H [C*
 Normal termination of Gaussian 16 at Sat Jan 14 21:27:50 2023.
