 Gaussian 16, Revision A.03,
 Gaussian 16:  ES64L-G16RevA.03 25-Dec-2016

 ---------------------------------------------------------------
 #p ROCCSD(T)/cc-pVTZ Guess=Read SCF=(VeryTight,CDIIS,VShift=10)
 ---------------------------------------------------------------

 --------
 O2_O2_51
 --------
 Symbolic Z-matrix:
 Charge = -1 Multiplicity = 2

                         Standard orientation:
 ---------------------------------------------------------------------
 Center     Atomic      Atomic             Coordinates (Angstroms)
 Number     Number       Type             X           Y           Z
 ---------------------------------------------------------------------
      1          8           0        0.000000    0.000000    1.153620
      2          8           0        0.000000    0.000000    2.506000
      3          8           0        0.000000    0.000000   -2.506000
      4          8           0        0.000000    0.000000   -1.153620
 ---------------------------------------------------------------------

 SCF Done:  E(ROHF) =  -299.000746851     A.U. after   12 cycles
 E2 =    -0.1402443713D+01 EUMP2 =    -0.30040319056448D+03
 CCSD(T)
 CCSD(T)= -0.30023099913D+03

 Unable to determine electronic state:  an orbital has unidentified symmetry.
 Alpha  occ. eigenvalues --  -20.50434 -20.50432 -20.44095 -20.44095  -1.29005
 Alpha  occ. eigenvalues --   -1.28336  -0.91750  -0.88777  -0.48091  -0.47104
 Alpha  occ. eigenvalues --   -0.45611  -0.39951  -0.39787  -0.37569  -0.26348
 Alpha  occ. eigenvalues --   -0.25192  -0.08459
 Alpha virt. eigenvalues --    0.09629   0.50771   0.58015   0.89946   0.91811
 Alpha virt. eigenvalues --    0.92456   0.94408   0.95955   0.97644   0.99958
 Alpha virt. eigenvalues --    1.01911   1.03679   1.13011   1.13282   1.14168

 Mulliken charges and spin densities:
               1          2
     1  O   -0.133105   0.331673
     2  O   -0.366895   0.168327
     3  O   -0.366895   0.168327
     4  O   -0.133105   0.331673
 Sum of Mulliken charges =  -1.00000   1.00000

 Dipole moment (field-independent basis, Debye):
    X=             -0.0000    Y=              0.0000    Z=              0.0000  Tot=              0.0000
 Quadrupole moment (field-independent basis, Debye-Ang):
   XX=            -22.5863   YY=            -23.1463   ZZ=            -46.5374
   XY=              0.0000   XZ=              0.0000   YZ=              0.0000

 7784\CCSD=-300.1115915\CCSD(T)=-300.2309991\RMSD=9.696e-10\PG=D*H [C*(
 Normal termination of Gaussian 16 at Sat Jan 14 20:39:52 2023.
