 Gaussian 16, Revision A.03,
 Gaussian 16:  ES64L-G16RevA.03 25-Dec-2016

 ---------------------------------------------------------------
 #p ROCCSD(T)/cc-pVTZ Guess=Read SCF=(VeryTight,CDIIS,VShift=10)
 ---------------------------------------------------------------

 ---------
 O2_O2_249
 ---------
 Symbolic Z-matrix:
 Charge = -1 Multiplicity = 2

                         Standard orientation:
 ---------------------------------------------------------------------
 Center     Atomic      Atomic             Coordinates (Angstroms)
 Number     Number       Type             X           Y           Z
 ---------------------------------------------------------------------
      1          8           0        0.000000    0.000000    2.555319
      2          8           0        0.000000    0.000000    3.907699
      3          8           0        0.000000    0.000000   -3.907699
      4          8           0        0.000000    0.000000   -2.555319
 ---------------------------------------------------------------------

 SCF Done:  E(ROHF) =  -299.131098414     A.U. after    8 cycles
 E2 =    -0.1046962389D+01 EUMP2 =    -0.30017806080311D+03
 CCSD(T)
 CCSD(T)= -0.30018231191D+03

 Unable to determine electronic state:  an orbital has unidentified symmetry.
 Alpha  occ. eigenvalues --  -20.48558 -20.48558 -20.47713 -20.47713  -1.30129
 Alpha  occ. eigenvalues --   -1.30126  -0.92136  -0.92104  -0.47445  -0.47445
 Alpha  occ. eigenvalues --   -0.44872  -0.44858  -0.42267  -0.42061  -0.26275
 Alpha  occ. eigenvalues --   -0.26274  -0.07585
 Alpha virt. eigenvalues --    0.00844   0.49916   0.50211   0.89749   0.90380
 Alpha virt. eigenvalues --    0.92699   0.92711   0.92837   0.92848   0.95973
 Alpha virt. eigenvalues --    0.96429   1.01973   1.02006   1.02179   1.02212

 Mulliken charges and spin densities:
               1          2
     1  O   -0.222004   0.261034
     2  O   -0.277996   0.238966
     3  O   -0.277996   0.238966
     4  O   -0.222004   0.261034
 Sum of Mulliken charges =  -1.00000   1.00000

 Dipole moment (field-independent basis, Debye):
    X=             -0.0000    Y=              0.0000    Z=             -0.0000  Tot=              0.0000
 Quadrupole moment (field-independent basis, Debye-Ang):
   XX=            -21.4425   YY=            -23.7616   ZZ=            -77.9666
   XY=              0.0000   XZ=              0.0000   YZ=              0.0000

 362591\CCSD=-300.1276739\CCSD(T)=-300.1823119\RMSD=1.407e-09\PG=D*H [C
 Normal termination of Gaussian 16 at Sun Jan 15 01:18:59 2023.
