 Gaussian 16, Revision A.03,
 Gaussian 16:  ES64L-G16RevA.03 25-Dec-2016

 ---------------------------------------------------------------
 #p ROCCSD(T)/cc-pVTZ Guess=Read SCF=(VeryTight,CDIIS,VShift=10)
 ---------------------------------------------------------------

 ---------
 O2_O2_151
 ---------
 Symbolic Z-matrix:
 Charge = -1 Multiplicity = 2

                         Standard orientation:
 ---------------------------------------------------------------------
 Center     Atomic      Atomic             Coordinates (Angstroms)
 Number     Number       Type             X           Y           Z
 ---------------------------------------------------------------------
      1          8           0        0.000000    0.000000    1.861548
      2          8           0        0.000000    0.000000    3.213929
      3          8           0        0.000000    0.000000   -3.213929
      4          8           0        0.000000    0.000000   -1.861548
 ---------------------------------------------------------------------

 SCF Done:  E(ROHF) =  -299.132337112     A.U. after    8 cycles
 E2 =    -0.1045066140D+01 EUMP2 =    -0.30017740325202D+03
 CCSD(T)
 CCSD(T)= -0.30018380043D+03

 Unable to determine electronic state:  an orbital has unidentified symmetry.
 Alpha  occ. eigenvalues --  -20.47723 -20.47722 -20.46326 -20.46326  -1.29037
 Alpha  occ. eigenvalues --   -1.29015  -0.91056  -0.90904  -0.46363  -0.46332
 Alpha  occ. eigenvalues --   -0.43881  -0.43528  -0.41292  -0.40822  -0.25191
 Alpha  occ. eigenvalues --   -0.25115  -0.07758
 Alpha virt. eigenvalues --    0.03315   0.48749   0.53356   0.84570   0.93114
 Alpha virt. eigenvalues --    0.93440   0.93570   0.94075   0.94210   0.94911
 Alpha virt. eigenvalues --    1.02206   1.02435   1.04118   1.04298   1.08944

 Mulliken charges and spin densities:
               1          2
     1  O   -0.205054   0.266901
     2  O   -0.294946   0.233099
     3  O   -0.294946   0.233099
     4  O   -0.205054   0.266901
 Sum of Mulliken charges =  -1.00000   1.00000

 Dipole moment (field-independent basis, Debye):
    X=             -0.0000    Y=              0.0000    Z=              0.0000  Tot=              0.0000
 Quadrupole moment (field-independent basis, Debye-Ang):
   XX=            -21.4550   YY=            -23.7665   ZZ=            -59.3963
   XY=              0.0000   XZ=              0.0000   YZ=              0.0000

 379262\CCSD=-300.1291206\CCSD(T)=-300.1838004\RMSD=4.190e-09\PG=D*H [C
 Normal termination of Gaussian 16 at Sat Jan 14 23:08:16 2023.
