 Gaussian 16, Revision A.03,
 Gaussian 16:  ES64L-G16RevA.03 25-Dec-2016

 ---------------------------------------------------------------
 #p ROCCSD(T)/cc-pVTZ Guess=Read SCF=(VeryTight,CDIIS,VShift=10)
 ---------------------------------------------------------------

 ---------
 O2_O2_185
 ---------
 Symbolic Z-matrix:
 Charge = -1 Multiplicity = 2

                         Standard orientation:
 ---------------------------------------------------------------------
 Center     Atomic      Atomic             Coordinates (Angstroms)
 Number     Number       Type             X           Y           Z
 ---------------------------------------------------------------------
      1          8           0        0.000000    0.000000    2.102244
      2          8           0        0.000000    0.000000    3.454625
      3          8           0        0.000000    0.000000   -3.454625
      4          8           0        0.000000    0.000000   -2.102244
 ---------------------------------------------------------------------

 SCF Done:  E(ROHF) =  -299.131591431     A.U. after    8 cycles
 E2 =    -0.1045813898D+01 EUMP2 =    -0.30017740532911D+03
 CCSD(T)
 CCSD(T)= -0.30018287749D+03

 Unable to determine electronic state:  an orbital has unidentified symmetry.
 Alpha  occ. eigenvalues --  -20.48037 -20.48036 -20.46886 -20.46886  -1.29466
 Alpha  occ. eigenvalues --   -1.29457  -0.91471  -0.91397  -0.46785  -0.46776
 Alpha  occ. eigenvalues --   -0.44232  -0.44104  -0.41667  -0.41328  -0.25609
 Alpha  occ. eigenvalues --   -0.25586  -0.07660
 Alpha virt. eigenvalues --    0.02289   0.49533   0.51883   0.87568   0.92430
 Alpha virt. eigenvalues --    0.93258   0.93395   0.93448   0.93586   0.95333
 Alpha virt. eigenvalues --    1.00782   1.02385   1.02597   1.02960   1.03158

 Mulliken charges and spin densities:
               1          2
     1  O   -0.212309   0.264601
     2  O   -0.287691   0.235399
     3  O   -0.287691   0.235399
     4  O   -0.212309   0.264601
 Sum of Mulliken charges =  -1.00000   1.00000

 Dipole moment (field-independent basis, Debye):
    X=             -0.0000    Y=              0.0000    Z=              0.0000  Tot=              0.0000
 Quadrupole moment (field-independent basis, Debye-Ang):
   XX=            -21.4475   YY=            -23.7643   ZZ=            -65.2886
   XY=              0.0000   XZ=              0.0000   YZ=              0.0000

 369423\CCSD=-300.1282359\CCSD(T)=-300.1828775\RMSD=1.616e-09\PG=D*H [C
 Normal termination of Gaussian 16 at Sat Jan 14 23:53:00 2023.
