 Gaussian 16, Revision A.03,
 Gaussian 16:  ES64L-G16RevA.03 25-Dec-2016

 ---------------------------------------------------------------
 #p ROCCSD(T)/cc-pVTZ Guess=Read SCF=(VeryTight,CDIIS,VShift=10)
 ---------------------------------------------------------------

 ---------
 O2_O2_116
 ---------
 Symbolic Z-matrix:
 Charge = -1 Multiplicity = 2

                         Standard orientation:
 ---------------------------------------------------------------------
 Center     Atomic      Atomic             Coordinates (Angstroms)
 Number     Number       Type             X           Y           Z
 ---------------------------------------------------------------------
      1          8           0        0.000000    0.000000    1.613774
      2          8           0        0.000000    0.000000    2.966154
      3          8           0        0.000000    0.000000   -2.966154
      4          8           0        0.000000    0.000000   -1.613774
 ---------------------------------------------------------------------

 SCF Done:  E(ROHF) =  -298.959678372     A.U. after   11 cycles
 E2 =    -0.1629791645D+01 EUMP2 =    -0.30058947001705D+03
 CCSD(T)
 CCSD(T)= -0.30022656331D+03

 Unable to determine electronic state:  partially filled degenerate orbitals.
 Alpha  occ. eigenvalues --  -20.49676 -20.49675 -20.46562 -20.46561  -1.29493
 Alpha  occ. eigenvalues --   -1.29430  -0.91438  -0.91053  -0.48354  -0.48249
 Alpha  occ. eigenvalues --   -0.44403  -0.43467  -0.40043  -0.39303  -0.27040
 Alpha  occ. eigenvalues --   -0.26929  -0.06961
 Alpha virt. eigenvalues --    0.05648   0.48178   0.54330   0.83566   0.91870
 Alpha virt. eigenvalues --    0.92875   0.93807   0.93860   0.94727   0.95631
 Alpha virt. eigenvalues --    1.00296   1.02431   1.05213   1.07325   1.12868

 Mulliken charges and spin densities:
               1          2
     1  O   -0.185841   0.298479
     2  O   -0.314159   0.201521
     3  O   -0.314159   0.201521
     4  O   -0.185841   0.298479
 Sum of Mulliken charges =  -1.00000   1.00000

 Dipole moment (field-independent basis, Debye):
    X=             -0.0000    Y=              0.0000    Z=              0.0000  Tot=              0.0000
 Quadrupole moment (field-independent basis, Debye-Ang):
   XX=            -22.4732   YY=            -23.0887   ZZ=            -54.4960
   XY=              0.0000   XZ=              0.0000   YZ=              0.0000

 23\CCSD=-300.0907842\CCSD(T)=-300.2265633\RMSD=5.851e-09\PG=D*H [C*(O1
 Normal termination of Gaussian 16 at Sat Jan 14 22:19:28 2023.
