 Gaussian 16, Revision A.03,
 Gaussian 16:  ES64L-G16RevA.03 25-Dec-2016

 ---------------------------------------------------------------
 #p ROCCSD(T)/cc-pVTZ Guess=Read SCF=(VeryTight,CDIIS,VShift=10)
 ---------------------------------------------------------------

 ---------
 O2_O2_252
 ---------
 Symbolic Z-matrix:
 Charge = -1 Multiplicity = 2

                         Standard orientation:
 ---------------------------------------------------------------------
 Center     Atomic      Atomic             Coordinates (Angstroms)
 Number     Number       Type             X           Y           Z
 ---------------------------------------------------------------------
      1          8           0        0.000000    0.000000    2.576557
      2          8           0        0.000000    0.000000    3.928937
      3          8           0        0.000000    0.000000   -3.928937
      4          8           0        0.000000    0.000000   -2.576557
 ---------------------------------------------------------------------

 SCF Done:  E(ROHF) =  -299.131087766     A.U. after    8 cycles
 E2 =    -0.1047007857D+01 EUMP2 =    -0.30017809562314D+03
 CCSD(T)
 CCSD(T)= -0.30018230039D+03

 Unable to determine electronic state:  an orbital has unidentified symmetry.
 Alpha  occ. eigenvalues --  -20.48580 -20.48579 -20.47746 -20.47745  -1.30156
 Alpha  occ. eigenvalues --   -1.30153  -0.92163  -0.92132  -0.47472  -0.47472
 Alpha  occ. eigenvalues --   -0.44900  -0.44887  -0.42292  -0.42090  -0.26303
 Alpha  occ. eigenvalues --   -0.26301  -0.07583
 Alpha virt. eigenvalues --    0.00787   0.49904   0.50165   0.89758   0.90316
 Alpha virt. eigenvalues --    0.92674   0.92683   0.92811   0.92821   0.95968
 Alpha virt. eigenvalues --    0.96366   1.01948   1.01977   1.02154   1.02182

 Mulliken charges and spin densities:
               1          2
     1  O   -0.222367   0.260895
     2  O   -0.277633   0.239105
     3  O   -0.277633   0.239105
     4  O   -0.222367   0.260895
 Sum of Mulliken charges =  -1.00000   1.00000

 Dipole moment (field-independent basis, Debye):
    X=             -0.0000    Y=             -0.0000    Z=             -0.0000  Tot=              0.0000
 Quadrupole moment (field-independent basis, Debye-Ang):
   XX=            -21.4424   YY=            -23.7615   ZZ=            -78.6114
   XY=              0.0000   XZ=              0.0000   YZ=              0.0000

 362427\CCSD=-300.1276619\CCSD(T)=-300.1823004\RMSD=1.381e-09\PG=D*H [C
 Normal termination of Gaussian 16 at Sun Jan 15 01:22:59 2023.
