 Gaussian 16, Revision A.03,
 Gaussian 16:  ES64L-G16RevA.03 25-Dec-2016

 ---------------------------------------------------------------
 #p ROCCSD(T)/cc-pVTZ Guess=Read SCF=(VeryTight,CDIIS,VShift=10)
 ---------------------------------------------------------------

 --------
 O2_O2_95
 --------
 Symbolic Z-matrix:
 Charge = -1 Multiplicity = 2

                         Standard orientation:
 ---------------------------------------------------------------------
 Center     Atomic      Atomic             Coordinates (Angstroms)
 Number     Number       Type             X           Y           Z
 ---------------------------------------------------------------------
      1          8           0        0.000000    0.000000    1.465108
      2          8           0        0.000000    0.000000    2.817488
      3          8           0        0.000000    0.000000   -2.817488
      4          8           0        0.000000    0.000000   -1.465108
 ---------------------------------------------------------------------

 SCF Done:  E(ROHF) =  -298.969309516     A.U. after   11 cycles
 E2 =    -0.1559101206D+01 EUMP2 =    -0.30052841072186D+03
 CCSD(T)
 CCSD(T)= -0.30022738989D+03

 Unable to determine electronic state:  an orbital has unidentified symmetry.
 Alpha  occ. eigenvalues --  -20.49779 -20.49778 -20.45957 -20.45957  -1.29264
 Alpha  occ. eigenvalues --   -1.29135  -0.91291  -0.90568  -0.48160  -0.47944
 Alpha  occ. eigenvalues --   -0.44452  -0.42770  -0.39870  -0.38868  -0.26791
 Alpha  occ. eigenvalues --   -0.26509  -0.07248
 Alpha virt. eigenvalues --    0.06635   0.48838   0.55349   0.86710   0.91243
 Alpha virt. eigenvalues --    0.92551   0.93306   0.94515   0.94800   0.96266
 Alpha virt. eigenvalues --    0.99837   1.01918   1.07405   1.09538   1.13019

 Mulliken charges and spin densities:
               1          2
     1  O   -0.174813   0.306687
     2  O   -0.325187   0.193313
     3  O   -0.325187   0.193313
     4  O   -0.174813   0.306687
 Sum of Mulliken charges =  -1.00000   1.00000

 Dipole moment (field-independent basis, Debye):
    X=             -0.0000    Y=              0.0000    Z=              0.0000  Tot=              0.0000
 Quadrupole moment (field-independent basis, Debye-Ang):
   XX=            -22.5014   YY=            -23.1037   ZZ=            -51.5861
   XY=              0.0000   XZ=              0.0000   YZ=              0.0000

 72946\CCSD=-300.0954897\CCSD(T)=-300.2273899\RMSD=7.874e-09\PG=D*H [C*
 Normal termination of Gaussian 16 at Sat Jan 14 21:46:09 2023.
