 Gaussian 16, Revision A.03,
 Gaussian 16:  ES64L-G16RevA.03 25-Dec-2016

 ---------------------------------------------------------------
 #p ROCCSD(T)/cc-pVTZ Guess=Read SCF=(VeryTight,CDIIS,VShift=10)
 ---------------------------------------------------------------

 --------
 O2_O2_47
 --------
 Symbolic Z-matrix:
 Charge = -1 Multiplicity = 2

                         Standard orientation:
 ---------------------------------------------------------------------
 Center     Atomic      Atomic             Coordinates (Angstroms)
 Number     Number       Type             X           Y           Z
 ---------------------------------------------------------------------
      1          8           0        0.000000    0.000000    1.125302
      2          8           0        0.000000    0.000000    2.477682
      3          8           0        0.000000    0.000000   -2.477682
      4          8           0        0.000000    0.000000   -1.125302
 ---------------------------------------------------------------------

 SCF Done:  E(ROHF) =  -299.004190634     A.U. after   12 cycles
 E2 =    -0.1387907289D+01 EUMP2 =    -0.30039209792307D+03
 CCSD(T)
 CCSD(T)= -0.30023108306D+03

 Unable to determine electronic state:  an orbital has unidentified symmetry.
 Alpha  occ. eigenvalues --  -20.50523 -20.50521 -20.43858 -20.43858  -1.29020
 Alpha  occ. eigenvalues --   -1.28235  -0.91909  -0.88515  -0.48137  -0.47000
 Alpha  occ. eigenvalues --   -0.45837  -0.39820  -0.39517  -0.37406  -0.26315
 Alpha  occ. eigenvalues --   -0.25020  -0.08634
 Alpha virt. eigenvalues --    0.09999   0.50929   0.58333   0.89956   0.91769
 Alpha virt. eigenvalues --    0.92514   0.94330   0.96092   0.97774   1.00079
 Alpha virt. eigenvalues --    1.02029   1.05687   1.12978   1.13803   1.14298

 Mulliken charges and spin densities:
               1          2
     1  O   -0.127187   0.334504
     2  O   -0.372813   0.165496
     3  O   -0.372813   0.165496
     4  O   -0.127187   0.334504
 Sum of Mulliken charges =  -1.00000   1.00000

 Dipole moment (field-independent basis, Debye):
    X=             -0.0000    Y=              0.0000    Z=             -0.0000  Tot=              0.0000
 Quadrupole moment (field-independent basis, Debye-Ang):
   XX=            -22.5937   YY=            -23.1492   ZZ=            -46.1780
   XY=              0.0000   XZ=              0.0000   YZ=              0.0000

 3169\CCSD=-300.1131994\CCSD(T)=-300.2310831\RMSD=1.252e-09\PG=D*H [C*(
 Normal termination of Gaussian 16 at Sat Jan 14 20:33:49 2023.
