 Gaussian 16, Revision A.03,
 Gaussian 16:  ES64L-G16RevA.03 25-Dec-2016

 ---------------------------------------------------------------
 #p ROCCSD(T)/cc-pVTZ Guess=Read SCF=(VeryTight,CDIIS,VShift=10)
 ---------------------------------------------------------------

 ---------
 O2_O2_173
 ---------
 Symbolic Z-matrix:
 Charge = -1 Multiplicity = 2

                         Standard orientation:
 ---------------------------------------------------------------------
 Center     Atomic      Atomic             Coordinates (Angstroms)
 Number     Number       Type             X           Y           Z
 ---------------------------------------------------------------------
      1          8           0        0.000000    0.000000    2.017293
      2          8           0        0.000000    0.000000    3.369673
      3          8           0        0.000000    0.000000   -3.369673
      4          8           0        0.000000    0.000000   -2.017293
 ---------------------------------------------------------------------

 SCF Done:  E(ROHF) =  -299.131794370     A.U. after    8 cycles
 E2 =    -0.1045560707D+01 EUMP2 =    -0.30017735507691D+03
 CCSD(T)
 CCSD(T)= -0.30018312324D+03

 Unable to determine electronic state:  an orbital has unidentified symmetry.
 Alpha  occ. eigenvalues --  -20.47928 -20.47928 -20.46700 -20.46700  -1.29321
 Alpha  occ. eigenvalues --   -1.29309  -0.91329  -0.91235  -0.46642  -0.46628
 Alpha  occ. eigenvalues --   -0.44106  -0.43921  -0.41539  -0.41161  -0.25466
 Alpha  occ. eigenvalues --   -0.25430  -0.07688
 Alpha virt. eigenvalues --    0.02624   0.49271   0.52367   0.86529   0.92757
 Alpha virt. eigenvalues --    0.93345   0.93479   0.93643   0.93780   0.95144
 Alpha virt. eigenvalues --    1.02378   1.02594   1.03000   1.03280   1.03473

 Mulliken charges and spin densities:
               1          2
     1  O   -0.209963   0.265391
     2  O   -0.290037   0.234609
     3  O   -0.290037   0.234609
     4  O   -0.209963   0.265391
 Sum of Mulliken charges =  -1.00000   1.00000

 Dipole moment (field-independent basis, Debye):
    X=             -0.0000    Y=             -0.0000    Z=              0.0000  Tot=              0.0000
 Quadrupole moment (field-independent basis, Debye-Ang):
   XX=            -21.4495   YY=            -23.7650   ZZ=            -63.1412
   XY=              0.0000   XZ=              0.0000   YZ=              0.0000

 372107\CCSD=-300.1284733\CCSD(T)=-300.1831232\RMSD=2.056e-09\PG=D*H [C
 Normal termination of Gaussian 16 at Sat Jan 14 23:37:29 2023.
