 Gaussian 16, Revision A.03,
 Gaussian 16:  ES64L-G16RevA.03 25-Dec-2016

 ---------------------------------------------------------------
 #p ROCCSD(T)/cc-pVTZ Guess=Read SCF=(VeryTight,CDIIS,VShift=10)
 ---------------------------------------------------------------

 --------
 O2_O2_91
 --------
 Symbolic Z-matrix:
 Charge = -1 Multiplicity = 2

                         Standard orientation:
 ---------------------------------------------------------------------
 Center     Atomic      Atomic             Coordinates (Angstroms)
 Number     Number       Type             X           Y           Z
 ---------------------------------------------------------------------
      1          8           0        0.000000    0.000000    1.436791
      2          8           0        0.000000    0.000000    2.789171
      3          8           0        0.000000    0.000000   -2.789171
      4          8           0        0.000000    0.000000   -1.436791
 ---------------------------------------------------------------------

 SCF Done:  E(ROHF) =  -298.971507086     A.U. after   11 cycles
 E2 =    -0.1545300386D+01 EUMP2 =    -0.30051680747157D+03
 CCSD(T)
 CCSD(T)= -0.30022764622D+03

 Unable to determine electronic state:  an orbital has unidentified symmetry.
 Alpha  occ. eigenvalues --  -20.49813 -20.49812 -20.45827 -20.45827  -1.29224
 Alpha  occ. eigenvalues --   -1.29075  -0.91278  -0.90459  -0.48129  -0.47882
 Alpha  occ. eigenvalues --   -0.44486  -0.42606  -0.39842  -0.38775  -0.26745
 Alpha  occ. eigenvalues --   -0.26419  -0.07318
 Alpha virt. eigenvalues --    0.06848   0.49006   0.55553   0.87662   0.91093
 Alpha virt. eigenvalues --    0.92472   0.93187   0.94644   0.94813   0.96390
 Alpha virt. eigenvalues --    0.99773   1.01841   1.07891   1.10028   1.13039

 Mulliken charges and spin densities:
               1          2
     1  O   -0.172256   0.308495
     2  O   -0.327744   0.191505
     3  O   -0.327744   0.191505
     4  O   -0.172256   0.308495
 Sum of Mulliken charges =  -1.00000   1.00000

 Dipole moment (field-independent basis, Debye):
    X=             -0.0000    Y=              0.0000    Z=              0.0000  Tot=              0.0000
 Quadrupole moment (field-independent basis, Debye-Ang):
   XX=            -22.5079   YY=            -23.1072   ZZ=            -51.0627
   XY=              0.0000   XZ=              0.0000   YZ=              0.0000

 98127\CCSD=-300.0966078\CCSD(T)=-300.2276462\RMSD=8.218e-09\PG=D*H [C*
 Normal termination of Gaussian 16 at Sat Jan 14 21:39:56 2023.
