 Gaussian 16, Revision A.03,
 Gaussian 16:  ES64L-G16RevA.03 25-Dec-2016

 ---------------------------------------------------------------
 #p ROCCSD(T)/cc-pVTZ Guess=Read SCF=(VeryTight,CDIIS,VShift=10)
 ---------------------------------------------------------------

 --------
 O2_O2_29
 --------
 Symbolic Z-matrix:
 Charge = -1 Multiplicity = 2

                         Standard orientation:
 ---------------------------------------------------------------------
 Center     Atomic      Atomic             Coordinates (Angstroms)
 Number     Number       Type             X           Y           Z
 ---------------------------------------------------------------------
      1          8           0        0.000000    0.000000    0.997875
      2          8           0        0.000000    0.000000    2.350255
      3          8           0        0.000000    0.000000   -2.350255
      4          8           0        0.000000    0.000000   -0.997875
 ---------------------------------------------------------------------

 SCF Done:  E(ROHF) =  -299.017981469     A.U. after    9 cycles
 E2 =    -0.1323471816D+01 EUMP2 =    -0.30034145328483D+03
 CCSD(T)
 CCSD(T)= -0.30022792555D+03

 Unable to determine electronic state:  an orbital has unidentified symmetry.
 Alpha  occ. eigenvalues --  -20.50969 -20.50966 -20.42549 -20.42549  -1.29304
 Alpha  occ. eigenvalues --   -1.27662  -0.93158  -0.86964  -0.48600  -0.47226
 Alpha  occ. eigenvalues --   -0.46411  -0.40170  -0.36844  -0.36519  -0.26175
 Alpha  occ. eigenvalues --   -0.24061  -0.09620
 Alpha virt. eigenvalues --    0.11976   0.51568   0.60101   0.90419   0.91591
 Alpha virt. eigenvalues --    0.93182   0.93897   0.96765   0.98408   1.00938
 Alpha virt. eigenvalues --    1.02902   1.11812   1.12720   1.15944   1.17419

 Mulliken charges and spin densities:
               1          2
     1  O   -0.094445   0.348127
     2  O   -0.405555   0.151873
     3  O   -0.405555   0.151873
     4  O   -0.094445   0.348127
 Sum of Mulliken charges =  -1.00000   1.00000

 Dipole moment (field-independent basis, Debye):
    X=             -0.0000    Y=             -0.0000    Z=              0.0000  Tot=              0.0000
 Quadrupole moment (field-independent basis, Debye-Ang):
   XX=            -22.6120   YY=            -23.1480   ZZ=            -44.8750
   XY=              0.0000   XZ=              0.0000   YZ=              0.0000

 22\CCSD=-300.1177825\CCSD(T)=-300.2279256\RMSD=5.759e-09\PG=D*H [C*(O1
 Normal termination of Gaussian 16 at Sat Jan 14 20:07:06 2023.
