 Gaussian 16, Revision A.03,
 Gaussian 16:  ES64L-G16RevA.03 25-Dec-2016

 ---------------------------------------------------------------
 #p ROCCSD(T)/cc-pVTZ Guess=Read SCF=(VeryTight,CDIIS,VShift=10)
 ---------------------------------------------------------------

 --------
 O2_O2_65
 --------
 Symbolic Z-matrix:
 Charge = -1 Multiplicity = 2

                         Standard orientation:
 ---------------------------------------------------------------------
 Center     Atomic      Atomic             Coordinates (Angstroms)
 Number     Number       Type             X           Y           Z
 ---------------------------------------------------------------------
      1          8           0        0.000000    0.000000    1.252730
      2          8           0        0.000000    0.000000    2.605110
      3          8           0        0.000000    0.000000   -2.605110
      4          8           0        0.000000    0.000000   -1.252730
 ---------------------------------------------------------------------

 SCF Done:  E(ROHF) =  -298.989116303     A.U. after   12 cycles
 E2 =    -0.1453215652D+01 EUMP2 =    -0.30044233195570D+03
 CCSD(T)
 CCSD(T)= -0.30022994309D+03

 Unable to determine electronic state:  an orbital has unidentified symmetry.
 Alpha  occ. eigenvalues --  -20.50157 -20.50156 -20.44814 -20.44814  -1.29025
 Alpha  occ. eigenvalues --   -1.28637  -0.91404  -0.89526  -0.48026  -0.47421
 Alpha  occ. eigenvalues --   -0.45012  -0.41162  -0.39743  -0.38065  -0.26473
 Alpha  occ. eigenvalues --   -0.25706  -0.07950
 Alpha virt. eigenvalues --    0.08490   0.50181   0.57035   0.90156   0.91989
 Alpha virt. eigenvalues --    0.92503   0.94505   0.95489   0.97039   0.97201
 Alpha virt. eigenvalues --    0.99695   1.01678   1.11377   1.13076   1.13548

 Mulliken charges and spin densities:
               1          2
     1  O   -0.150405   0.322478
     2  O   -0.349595   0.177522
     3  O   -0.349595   0.177522
     4  O   -0.150405   0.322478
 Sum of Mulliken charges =  -1.00000   1.00000

 Dipole moment (field-independent basis, Debye):
    X=             -0.0000    Y=              0.0000    Z=             -0.0000  Tot=              0.0000
 Quadrupole moment (field-independent basis, Debye-Ang):
   XX=            -22.5577   YY=            -23.1329   ZZ=            -47.9504
   XY=              0.0000   XZ=              0.0000   YZ=              0.0000

 148\CCSD=-300.105759\CCSD(T)=-300.2299431\RMSD=3.264e-10\PG=D*H [C*(O1
 Normal termination of Gaussian 16 at Sat Jan 14 21:00:48 2023.
