 Gaussian 16, Revision A.03,
 Gaussian 16:  ES64L-G16RevA.03 25-Dec-2016

 ---------------------------------------------------------------
 #p ROCCSD(T)/cc-pVTZ Guess=Read SCF=(VeryTight,CDIIS,VShift=10)
 ---------------------------------------------------------------

 --------
 O2_O2_53
 --------
 Symbolic Z-matrix:
 Charge = -1 Multiplicity = 2

                         Standard orientation:
 ---------------------------------------------------------------------
 Center     Atomic      Atomic             Coordinates (Angstroms)
 Number     Number       Type             X           Y           Z
 ---------------------------------------------------------------------
      1          8           0        0.000000    0.000000    1.167778
      2          8           0        0.000000    0.000000    2.520158
      3          8           0        0.000000    0.000000   -2.520158
      4          8           0        0.000000    0.000000   -1.167778
 ---------------------------------------------------------------------

 SCF Done:  E(ROHF) =  -298.999030828     A.U. after   12 cycles
 E2 =    -0.1409715084D+01 EUMP2 =    -0.30040874591233D+03
 CCSD(T)
 CCSD(T)= -0.30023090606D+03

 Unable to determine electronic state:  an orbital has unidentified symmetry.
 Alpha  occ. eigenvalues --  -20.50391 -20.50389 -20.44208 -20.44208  -1.29002
 Alpha  occ. eigenvalues --   -1.28383  -0.91682  -0.88899  -0.48074  -0.47154
 Alpha  occ. eigenvalues --   -0.45508  -0.40151  -0.39774  -0.37646  -0.26365
 Alpha  occ. eigenvalues --   -0.25273  -0.08377
 Alpha virt. eigenvalues --    0.09452   0.50691   0.57863   0.89954   0.91833
 Alpha virt. eigenvalues --    0.92440   0.94441   0.95887   0.97579   0.99905
 Alpha virt. eigenvalues --    1.01862   1.02676   1.13016   1.13025   1.14119

 Mulliken charges and spin densities:
               1          2
     1  O   -0.135892   0.330291
     2  O   -0.364108   0.169709
     3  O   -0.364108   0.169709
     4  O   -0.135892   0.330291
 Sum of Mulliken charges =  -1.00000   1.00000

 Dipole moment (field-independent basis, Debye):
    X=             -0.0000    Y=              0.0000    Z=              0.0000  Tot=              0.0000
 Quadrupole moment (field-independent basis, Debye-Ang):
   XX=            -22.5825   YY=            -23.1447   ZZ=            -46.7251
   XY=              0.0000   XZ=              0.0000   YZ=              0.0000

 6944\CCSD=-300.1107634\CCSD(T)=-300.2309061\RMSD=8.316e-10\PG=D*H [C*(
 Normal termination of Gaussian 16 at Sat Jan 14 20:42:59 2023.
