 Gaussian 16, Revision A.03,
 Gaussian 16:  ES64L-G16RevA.03 25-Dec-2016

 ---------------------------------------------------------------
 #p ROCCSD(T)/cc-pVTZ Guess=Read SCF=(VeryTight,CDIIS,VShift=10)
 ---------------------------------------------------------------

 ---------
 O2_O2_108
 ---------
 Symbolic Z-matrix:
 Charge = -1 Multiplicity = 2

                         Standard orientation:
 ---------------------------------------------------------------------
 Center     Atomic      Atomic             Coordinates (Angstroms)
 Number     Number       Type             X           Y           Z
 ---------------------------------------------------------------------
      1          8           0        0.000000    0.000000    1.557139
      2          8           0        0.000000    0.000000    2.909519
      3          8           0        0.000000    0.000000   -2.909519
      4          8           0        0.000000    0.000000   -1.557139
 ---------------------------------------------------------------------

 SCF Done:  E(ROHF) =  -298.962999892     A.U. after   11 cycles
 E2 =    -0.1603210779D+01 EUMP2 =    -0.30056621067128D+03
 CCSD(T)
 CCSD(T)= -0.30022678034D+03

 Unable to determine electronic state:  partially filled degenerate orbitals.
 Alpha  occ. eigenvalues --  -20.49702 -20.49701 -20.46345 -20.46345  -1.29403
 Alpha  occ. eigenvalues --   -1.29320  -0.91370  -0.90883  -0.48275  -0.48137
 Alpha  occ. eigenvalues --   -0.44399  -0.43229  -0.39972  -0.39146  -0.26944
 Alpha  occ. eigenvalues --   -0.26779  -0.07056
 Alpha virt. eigenvalues --    0.06001   0.48374   0.54710   0.84410   0.91669
 Alpha virt. eigenvalues --    0.92774   0.93647   0.94104   0.94753   0.95868
 Alpha virt. eigenvalues --    1.00106   1.02223   1.05973   1.08092   1.12935

 Mulliken charges and spin densities:
               1          2
     1  O   -0.182057   0.301368
     2  O   -0.317943   0.198632
     3  O   -0.317943   0.198632
     4  O   -0.182057   0.301368
 Sum of Mulliken charges =  -1.00000   1.00000

 Dipole moment (field-independent basis, Debye):
    X=             -0.0000    Y=             -0.0000    Z=              0.0000  Tot=              0.0000
 Quadrupole moment (field-independent basis, Debye-Ang):
   XX=            -22.4828   YY=            -23.0939   ZZ=            -53.3566
   XY=              0.0000   XZ=              0.0000   YZ=              0.0000

 972871\CCSD=-300.0923627\CCSD(T)=-300.2267803\RMSD=6.625e-09\PG=D*H [C
 Normal termination of Gaussian 16 at Sat Jan 14 22:07:12 2023.
