 Gaussian 16, Revision A.03,
 Gaussian 16:  ES64L-G16RevA.03 25-Dec-2016

 ---------------------------------------------------------------
 #p ROCCSD(T)/cc-pVTZ Guess=Read SCF=(VeryTight,CDIIS,VShift=10)
 ---------------------------------------------------------------

 ---------
 O2_O2_192
 ---------
 Symbolic Z-matrix:
 Charge = -1 Multiplicity = 2

                         Standard orientation:
 ---------------------------------------------------------------------
 Center     Atomic      Atomic             Coordinates (Angstroms)
 Number     Number       Type             X           Y           Z
 ---------------------------------------------------------------------
      1          8           0        0.000000    0.000000    2.151800
      2          8           0        0.000000    0.000000    3.504180
      3          8           0        0.000000    0.000000   -3.504180
      4          8           0        0.000000    0.000000   -2.151800
 ---------------------------------------------------------------------

 SCF Done:  E(ROHF) =  -299.131496453     A.U. after    8 cycles
 E2 =    -0.1045956467D+01 EUMP2 =    -0.30017745291954D+03
 CCSD(T)
 CCSD(T)= -0.30018276468D+03

 Unable to determine electronic state:  an orbital has unidentified symmetry.
 Alpha  occ. eigenvalues --  -20.48099 -20.48098 -20.46989 -20.46989  -1.29548
 Alpha  occ. eigenvalues --   -1.29539  -0.91552  -0.91486  -0.46866  -0.46859
 Alpha  occ. eigenvalues --   -0.44306  -0.44203  -0.41740  -0.41420  -0.25690
 Alpha  occ. eigenvalues --   -0.25672  -0.07647
 Alpha virt. eigenvalues --    0.02105   0.49658   0.51624   0.88084   0.92202
 Alpha virt. eigenvalues --    0.93202   0.93339   0.93346   0.93484   0.95454
 Alpha virt. eigenvalues --    0.99784   1.02368   1.02578   1.02805   1.03004

 Mulliken charges and spin densities:
               1          2
     1  O   -0.213585   0.264155
     2  O   -0.286415   0.235845
     3  O   -0.286415   0.235845
     4  O   -0.213585   0.264155
 Sum of Mulliken charges =  -1.00000   1.00000

 Dipole moment (field-independent basis, Debye):
    X=             -0.0000    Y=             -0.0000    Z=              0.0000  Tot=              0.0000
 Quadrupole moment (field-independent basis, Debye-Ang):
   XX=            -21.4466   YY=            -23.7639   ZZ=            -66.5748
   XY=              0.0000   XZ=              0.0000   YZ=              0.0000

 368159\CCSD=-300.128126\CCSD(T)=-300.1827647\RMSD=1.528e-09\PG=D*H [C*
 Normal termination of Gaussian 16 at Sun Jan 15 00:02:11 2023.
