 Gaussian 16, Revision A.03,
 Gaussian 16:  ES64L-G16RevA.03 25-Dec-2016

 ---------------------------------------------------------------
 #p ROCCSD(T)/cc-pVTZ Guess=Read SCF=(VeryTight,CDIIS,VShift=10)
 ---------------------------------------------------------------

 --------
 O2_O2_44
 --------
 Symbolic Z-matrix:
 Charge = -1 Multiplicity = 2

                         Standard orientation:
 ---------------------------------------------------------------------
 Center     Atomic      Atomic             Coordinates (Angstroms)
 Number     Number       Type             X           Y           Z
 ---------------------------------------------------------------------
      1          8           0        0.000000    0.000000    1.104065
      2          8           0        0.000000    0.000000    2.456445
      3          8           0        0.000000    0.000000   -2.456445
      4          8           0        0.000000    0.000000   -1.104065
 ---------------------------------------------------------------------

 SCF Done:  E(ROHF) =  -299.006755945     A.U. after   12 cycles
 E2 =    -0.1377024900D+01 EUMP2 =    -0.30038378084420D+03
 CCSD(T)
 CCSD(T)= -0.30023102809D+03

 Unable to determine electronic state:  an orbital has unidentified symmetry.
 Alpha  occ. eigenvalues --  -20.50592 -20.50590 -20.43669 -20.43669  -1.29040
 Alpha  occ. eigenvalues --   -1.28155  -0.92052  -0.88301  -0.48182  -0.46916
 Alpha  occ. eigenvalues --   -0.46026  -0.39854  -0.39161  -0.37277  -0.26291
 Alpha  occ. eigenvalues --   -0.24883  -0.08775
 Alpha virt. eigenvalues --    0.10291   0.51045   0.58586   0.89986   0.91738
 Alpha virt. eigenvalues --    0.92581   0.94265   0.96198   0.97873   1.00186
 Alpha virt. eigenvalues --    1.02134   1.07155   1.12948   1.14184   1.14445

 Mulliken charges and spin densities:
               1          2
     1  O   -0.122439   0.336681
     2  O   -0.377561   0.163319
     3  O   -0.377561   0.163319
     4  O   -0.122439   0.336681
 Sum of Mulliken charges =  -1.00000   1.00000

 Dipole moment (field-independent basis, Debye):
    X=             -0.0000    Y=             -0.0000    Z=              0.0000  Tot=              0.0000
 Quadrupole moment (field-independent basis, Debye-Ang):
   XX=            -22.5987   YY=            -23.1508   ZZ=            -45.9235
   XY=              0.0000   XZ=              0.0000   YZ=              0.0000

 82588\CCSD=-300.1143351\CCSD(T)=-300.2310281\RMSD=1.406e-09\PG=D*H [C*
 Normal termination of Gaussian 16 at Sat Jan 14 20:29:21 2023.
