 Gaussian 16, Revision A.03,
 Gaussian 16:  ES64L-G16RevA.03 25-Dec-2016

 ---------------------------------------------------------------
 #p ROCCSD(T)/cc-pVTZ Guess=Read SCF=(VeryTight,CDIIS,VShift=10)
 ---------------------------------------------------------------

 ---------
 O2_O2_281
 ---------
 Symbolic Z-matrix:
 Charge = -1 Multiplicity = 2

                         Standard orientation:
 ---------------------------------------------------------------------
 Center     Atomic      Atomic             Coordinates (Angstroms)
 Number     Number       Type             X           Y           Z
 ---------------------------------------------------------------------
      1          8           0        0.000000    0.000000    2.781857
      2          8           0        0.000000    0.000000    4.134237
      3          8           0        0.000000    0.000000   -4.134237
      4          8           0        0.000000    0.000000   -2.781857
 ---------------------------------------------------------------------

 SCF Done:  E(ROHF) =  -299.131007256     A.U. after    8 cycles
 E2 =    -0.1047414760D+01 EUMP2 =    -0.30017842201573D+03
 CCSD(T)
 CCSD(T)= -0.30018221525D+03

 Unable to determine electronic state:  an orbital has unidentified symmetry.
 Alpha  occ. eigenvalues --  -20.48779 -20.48779 -20.48041 -20.48041  -1.30400
 Alpha  occ. eigenvalues --   -1.30398  -0.92409  -0.92385  -0.47716  -0.47716
 Alpha  occ. eigenvalues --   -0.45148  -0.45144  -0.42518  -0.42352  -0.26550
 Alpha  occ. eigenvalues --   -0.26549  -0.07568
 Alpha virt. eigenvalues --    0.00276   0.49735   0.49809   0.89698   0.89857
 Alpha virt. eigenvalues --    0.92438   0.92441   0.92576   0.92578   0.95831
 Alpha virt. eigenvalues --    0.95931   1.01711   1.01718   1.01918   1.01924

 Mulliken charges and spin densities:
               1          2
     1  O   -0.225542   0.259668
     2  O   -0.274458   0.240332
     3  O   -0.274458   0.240332
     4  O   -0.225542   0.259668
 Sum of Mulliken charges =  -1.00000   1.00000

 Dipole moment (field-independent basis, Debye):
    X=             -0.0000    Y=             -0.0000    Z=             -0.0000  Tot=              0.0000
 Quadrupole moment (field-independent basis, Debye-Ang):
   XX=            -21.4415   YY=            -23.7607   ZZ=            -85.0777
   XY=              0.0000   XZ=              0.0000   YZ=              0.0000

 1135\CCSD=-300.1275715\CCSD(T)=-300.1822152\RMSD=1.136e-09\PG=D*H [C*(
 Normal termination of Gaussian 16 at Sun Jan 15 02:02:00 2023.
