 Gaussian 16, Revision A.03,
 Gaussian 16:  ES64L-G16RevA.03 25-Dec-2016

 ---------------------------------------------------------------
 #p ROCCSD(T)/cc-pVTZ Guess=Read SCF=(VeryTight,CDIIS,VShift=10)
 ---------------------------------------------------------------

 ---------
 O2_O2_187
 ---------
 Symbolic Z-matrix:
 Charge = -1 Multiplicity = 2

                         Standard orientation:
 ---------------------------------------------------------------------
 Center     Atomic      Atomic             Coordinates (Angstroms)
 Number     Number       Type             X           Y           Z
 ---------------------------------------------------------------------
      1          8           0        0.000000    0.000000    2.116403
      2          8           0        0.000000    0.000000    3.468783
      3          8           0        0.000000    0.000000   -3.468783
      4          8           0        0.000000    0.000000   -2.116403
 ---------------------------------------------------------------------

 SCF Done:  E(ROHF) =  -299.131562697     A.U. after    8 cycles
 E2 =    -0.1045855026D+01 EUMP2 =    -0.30017741772346D+03
 CCSD(T)
 CCSD(T)= -0.30018284320D+03

 Unable to determine electronic state:  an orbital has unidentified symmetry.
 Alpha  occ. eigenvalues --  -20.48055 -20.48054 -20.46916 -20.46916  -1.29490
 Alpha  occ. eigenvalues --   -1.29481  -0.91494  -0.91423  -0.46809  -0.46800
 Alpha  occ. eigenvalues --   -0.44253  -0.44133  -0.41688  -0.41355  -0.25632
 Alpha  occ. eigenvalues --   -0.25611  -0.07656
 Alpha virt. eigenvalues --    0.02236   0.49571   0.51807   0.87723   0.92368
 Alpha virt. eigenvalues --    0.93243   0.93379   0.93418   0.93556   0.95367
 Alpha virt. eigenvalues --    1.00476   1.02381   1.02593   1.02914   1.03112

 Mulliken charges and spin densities:
               1          2
     1  O   -0.212680   0.264472
     2  O   -0.287320   0.235528
     3  O   -0.287320   0.235528
     4  O   -0.212680   0.264472
 Sum of Mulliken charges =  -1.00000   1.00000

 Dipole moment (field-independent basis, Debye):
    X=             -0.0000    Y=              0.0000    Z=              0.0000  Tot=              0.0000
 Quadrupole moment (field-independent basis, Debye-Ang):
   XX=            -21.4472   YY=            -23.7641   ZZ=            -65.6535
   XY=              0.0000   XZ=              0.0000   YZ=              0.0000

 369041\CCSD=-300.1282026\CCSD(T)=-300.1828432\RMSD=1.580e-09\PG=D*H [C
 Normal termination of Gaussian 16 at Sat Jan 14 23:55:32 2023.
