 Gaussian 16, Revision A.03,
 Gaussian 16:  ES64L-G16RevA.03 25-Dec-2016

 ---------------------------------------------------------------
 #p ROCCSD(T)/cc-pVTZ Guess=Read SCF=(VeryTight,CDIIS,VShift=10)
 ---------------------------------------------------------------

 ---------
 O2_O2_156
 ---------
 Symbolic Z-matrix:
 Charge = -1 Multiplicity = 2

                         Standard orientation:
 ---------------------------------------------------------------------
 Center     Atomic      Atomic             Coordinates (Angstroms)
 Number     Number       Type             X           Y           Z
 ---------------------------------------------------------------------
      1          8           0        0.000000    0.000000    1.896945
      2          8           0        0.000000    0.000000    3.249325
      3          8           0        0.000000    0.000000   -3.249325
      4          8           0        0.000000    0.000000   -1.896945
 ---------------------------------------------------------------------

 SCF Done:  E(ROHF) =  -299.132190849     A.U. after    8 cycles
 E2 =    -0.1045182555D+01 EUMP2 =    -0.30017737340450D+03
 CCSD(T)
 CCSD(T)= -0.30018361615D+03

 Unable to determine electronic state:  an orbital has unidentified symmetry.
 Alpha  occ. eigenvalues --  -20.47770 -20.47770 -20.46415 -20.46415  -1.29104
 Alpha  occ. eigenvalues --   -1.29085  -0.91119  -0.90984  -0.46429  -0.46402
 Alpha  occ. eigenvalues --   -0.43931  -0.43625  -0.41350  -0.40903  -0.25255
 Alpha  occ. eigenvalues --   -0.25191  -0.07739
 Alpha virt. eigenvalues --    0.03148   0.48858   0.53123   0.84971   0.93060
 Alpha virt. eigenvalues --    0.93428   0.93559   0.93967   0.94103   0.94949
 Alpha virt. eigenvalues --    1.02266   1.02491   1.03892   1.04076   1.07376

 Mulliken charges and spin densities:
               1          2
     1  O   -0.206247   0.266554
     2  O   -0.293753   0.233446
     3  O   -0.293753   0.233446
     4  O   -0.206247   0.266554
 Sum of Mulliken charges =  -1.00000   1.00000

 Dipole moment (field-independent basis, Debye):
    X=             -0.0000    Y=             -0.0000    Z=              0.0000  Tot=              0.0000
 Quadrupole moment (field-independent basis, Debye-Ang):
   XX=            -21.4535   YY=            -23.7661   ZZ=            -60.2253
   XY=              0.0000   XZ=              0.0000   YZ=              0.0000

 7335\CCSD=-300.128945\CCSD(T)=-300.1836161\RMSD=3.536e-09\PG=D*H [C*(O
 Normal termination of Gaussian 16 at Sat Jan 14 23:14:51 2023.
