 Gaussian 16, Revision A.03,
 Gaussian 16:  ES64L-G16RevA.03 25-Dec-2016

 ---------------------------------------------------------------
 #p ROCCSD(T)/cc-pVTZ Guess=Read SCF=(VeryTight,CDIIS,VShift=10)
 ---------------------------------------------------------------

 ---------
 O2_O2_106
 ---------
 Symbolic Z-matrix:
 Charge = -1 Multiplicity = 2

                         Standard orientation:
 ---------------------------------------------------------------------
 Center     Atomic      Atomic             Coordinates (Angstroms)
 Number     Number       Type             X           Y           Z
 ---------------------------------------------------------------------
      1          8           0        0.000000    0.000000    1.542981
      2          8           0        0.000000    0.000000    2.895361
      3          8           0        0.000000    0.000000   -2.895361
      4          8           0        0.000000    0.000000   -1.542981
 ---------------------------------------------------------------------

 SCF Done:  E(ROHF) =  -298.963893294     A.U. after   11 cycles
 E2 =    -0.1596498995D+01 EUMP2 =    -0.30056039228958D+03
 CCSD(T)
 CCSD(T)= -0.30022685259D+03

 Unable to determine electronic state:  partially filled degenerate orbitals.
 Alpha  occ. eigenvalues --  -20.49711 -20.49710 -20.46288 -20.46288  -1.29381
 Alpha  occ. eigenvalues --   -1.29292  -0.91355  -0.90839  -0.48256  -0.48108
 Alpha  occ. eigenvalues --   -0.44402  -0.43164  -0.39955  -0.39105  -0.26920
 Alpha  occ. eigenvalues --   -0.26740  -0.07082
 Alpha virt. eigenvalues --    0.06094   0.48435   0.54807   0.84687   0.91611
 Alpha virt. eigenvalues --    0.92744   0.93600   0.94166   0.94760   0.95928
 Alpha virt. eigenvalues --    1.00060   1.02173   1.06177   1.08299   1.12950

 Mulliken charges and spin densities:
               1          2
     1  O   -0.181038   0.302134
     2  O   -0.318962   0.197866
     3  O   -0.318962   0.197866
     4  O   -0.181038   0.302134
 Sum of Mulliken charges =  -1.00000   1.00000

 Dipole moment (field-independent basis, Debye):
    X=             -0.0000    Y=             -0.0000    Z=             -0.0000  Tot=              0.0000
 Quadrupole moment (field-independent basis, Debye-Ang):
   XX=            -22.4854   YY=            -23.0953   ZZ=            -53.0775
   XY=              0.0000   XZ=              0.0000   YZ=              0.0000

 258538\CCSD=-300.0927962\CCSD(T)=-300.2268526\RMSD=6.827e-09\PG=D*H [C
 Normal termination of Gaussian 16 at Sat Jan 14 22:04:10 2023.
