 Gaussian 16, Revision A.03,
 Gaussian 16:  ES64L-G16RevA.03 25-Dec-2016

 ---------------------------------------------------------------
 #p ROCCSD(T)/cc-pVTZ Guess=Read SCF=(VeryTight,CDIIS,VShift=10)
 ---------------------------------------------------------------

 ---------
 O2_O2_270
 ---------
 Symbolic Z-matrix:
 Charge = -1 Multiplicity = 2

                         Standard orientation:
 ---------------------------------------------------------------------
 Center     Atomic      Atomic             Coordinates (Angstroms)
 Number     Number       Type             X           Y           Z
 ---------------------------------------------------------------------
      1          8           0        0.000000    0.000000    2.703984
      2          8           0        0.000000    0.000000    4.056364
      3          8           0        0.000000    0.000000   -4.056364
      4          8           0        0.000000    0.000000   -2.703984
 ---------------------------------------------------------------------

 SCF Done:  E(ROHF) =  -299.131033787     A.U. after    8 cycles
 E2 =    -0.1047267033D+01 EUMP2 =    -0.30017830081984D+03
 CCSD(T)
 CCSD(T)= -0.30018224285D+03

 Unable to determine electronic state:  an orbital has unidentified symmetry.
 Alpha  occ. eigenvalues --  -20.48706 -20.48705 -20.47934 -20.47934  -1.30311
 Alpha  occ. eigenvalues --   -1.30308  -0.92319  -0.92293  -0.47627  -0.47627
 Alpha  occ. eigenvalues --   -0.45057  -0.45050  -0.42435  -0.42256  -0.26459
 Alpha  occ. eigenvalues --   -0.26459  -0.07573
 Alpha virt. eigenvalues --    0.00462   0.49807   0.49929   0.89744   0.90004
 Alpha virt. eigenvalues --    0.92525   0.92529   0.92662   0.92666   0.95897
 Alpha virt. eigenvalues --    0.96068   1.01799   1.01811   1.02006   1.02017

 Mulliken charges and spin densities:
               1          2
     1  O   -0.224404   0.260109
     2  O   -0.275596   0.239891
     3  O   -0.275596   0.239891
     4  O   -0.224404   0.260109
 Sum of Mulliken charges =  -1.00000   1.00000

 Dipole moment (field-independent basis, Debye):
    X=             -0.0000    Y=             -0.0000    Z=              0.0000  Tot=              0.0000
 Quadrupole moment (field-independent basis, Debye-Ang):
   XX=            -21.4418   YY=            -23.7610   ZZ=            -82.5753
   XY=              0.0000   XZ=              0.0000   YZ=              0.0000

 361571\CCSD=-300.1276012\CCSD(T)=-300.1822429\RMSD=1.224e-09\PG=D*H [C
 Normal termination of Gaussian 16 at Sun Jan 15 01:47:06 2023.
