 Gaussian 16, Revision A.03,
 Gaussian 16:  ES64L-G16RevA.03 25-Dec-2016

 ---------------------------------------------------------------
 #p ROCCSD(T)/cc-pVTZ Guess=Read SCF=(VeryTight,CDIIS,VShift=10)
 ---------------------------------------------------------------

 ---------
 O2_O2_143
 ---------
 Symbolic Z-matrix:
 Charge = -1 Multiplicity = 2

                         Standard orientation:
 ---------------------------------------------------------------------
 Center     Atomic      Atomic             Coordinates (Angstroms)
 Number     Number       Type             X           Y           Z
 ---------------------------------------------------------------------
      1          8           0        0.000000    0.000000    1.804914
      2          8           0        0.000000    0.000000    3.157294
      3          8           0        0.000000    0.000000   -3.157294
      4          8           0        0.000000    0.000000   -1.804914
 ---------------------------------------------------------------------

 SCF Done:  E(ROHF) =  -299.132604441     A.U. after    8 cycles
 E2 =    -0.1044873391D+01 EUMP2 =    -0.30017747783134D+03
 CCSD(T)
 CCSD(T)= -0.30018413874D+03

 Unable to determine electronic state:  an orbital has unidentified symmetry.
 Alpha  occ. eigenvalues --  -20.47646 -20.47646 -20.46179 -20.46178  -1.28927
 Alpha  occ. eigenvalues --   -1.28900  -0.90954  -0.90769  -0.46257  -0.46215
 Alpha  occ. eigenvalues --   -0.43806  -0.43362  -0.41199  -0.40686  -0.25087
 Alpha  occ. eigenvalues --   -0.24988  -0.07793
 Alpha virt. eigenvalues --    0.03596   0.48606   0.53737   0.84056   0.93168
 Alpha virt. eigenvalues --    0.93444   0.93569   0.94259   0.94393   0.94868
 Alpha virt. eigenvalues --    1.02083   1.02317   1.04532   1.04706   1.11596

 Mulliken charges and spin densities:
               1          2
     1  O   -0.203035   0.267459
     2  O   -0.296965   0.232541
     3  O   -0.296965   0.232541
     4  O   -0.203035   0.267459
 Sum of Mulliken charges =  -1.00000   1.00000

 Dipole moment (field-independent basis, Debye):
    X=             -0.0000    Y=              0.0000    Z=             -0.0000  Tot=              0.0000
 Quadrupole moment (field-independent basis, Debye-Ang):
   XX=            -21.4577   YY=            -23.7671   ZZ=            -58.0971
   XY=              0.0000   XZ=              0.0000   YZ=              0.0000

 82776\CCSD=-300.1294426\CCSD(T)=-300.1841387\RMSD=5.374e-09\PG=D*H [C*
 Normal termination of Gaussian 16 at Sat Jan 14 22:56:34 2023.
