 Gaussian 16, Revision A.03,
 Gaussian 16:  ES64L-G16RevA.03 25-Dec-2016

 ---------------------------------------------------------------
 #p ROCCSD(T)/cc-pVTZ Guess=Read SCF=(VeryTight,CDIIS,VShift=10)
 ---------------------------------------------------------------

 --------
 O2_O2_49
 --------
 Symbolic Z-matrix:
 Charge = -1 Multiplicity = 2

                         Standard orientation:
 ---------------------------------------------------------------------
 Center     Atomic      Atomic             Coordinates (Angstroms)
 Number     Number       Type             X           Y           Z
 ---------------------------------------------------------------------
      1          8           0        0.000000    0.000000    1.139461
      2          8           0        0.000000    0.000000    2.491841
      3          8           0        0.000000    0.000000   -2.491841
      4          8           0        0.000000    0.000000   -1.139461
 ---------------------------------------------------------------------

 SCF Done:  E(ROHF) =  -299.002468891     A.U. after   12 cycles
 E2 =    -0.1395173433D+01 EUMP2 =    -0.30039764232350D+03
 CCSD(T)
 CCSD(T)= -0.30023106043D+03

 Unable to determine electronic state:  an orbital has unidentified symmetry.
 Alpha  occ. eigenvalues --  -20.50478 -20.50476 -20.43979 -20.43979  -1.29011
 Alpha  occ. eigenvalues --   -1.28287  -0.91825  -0.88649  -0.48112  -0.47053
 Alpha  occ. eigenvalues --   -0.45721  -0.39802  -0.39740  -0.37489  -0.26331
 Alpha  occ. eigenvalues --   -0.25108  -0.08545
 Alpha virt. eigenvalues --    0.09811   0.50851   0.58171   0.89947   0.91790
 Alpha virt. eigenvalues --    0.92481   0.94370   0.96023   0.97708   1.00016
 Alpha virt. eigenvalues --    1.01967   1.04686   1.12995   1.13544   1.14226

 Mulliken charges and spin densities:
               1          2
     1  O   -0.130204   0.333078
     2  O   -0.369796   0.166922
     3  O   -0.369796   0.166922
     4  O   -0.130204   0.333078
 Sum of Mulliken charges =  -1.00000   1.00000

 Dipole moment (field-independent basis, Debye):
    X=             -0.0000    Y=              0.0000    Z=             -0.0000  Tot=              0.0000
 Quadrupole moment (field-independent basis, Debye-Ang):
   XX=            -22.5901   YY=            -23.1478   ZZ=            -46.3550
   XY=              0.0000   XZ=              0.0000   YZ=              0.0000

 322\CCSD=-300.1124057\CCSD(T)=-300.2310604\RMSD=1.113e-09\PG=D*H [C*(O
 Normal termination of Gaussian 16 at Sat Jan 14 20:36:51 2023.
