 Gaussian 16, Revision A.03,
 Gaussian 16:  ES64L-G16RevA.03 25-Dec-2016

 ---------------------------------------------------------------
 #p ROCCSD(T)/cc-pVTZ Guess=Read SCF=(VeryTight,CDIIS,VShift=10)
 ---------------------------------------------------------------

 --------
 O2_O2_93
 --------
 Symbolic Z-matrix:
 Charge = -1 Multiplicity = 2

                         Standard orientation:
 ---------------------------------------------------------------------
 Center     Atomic      Atomic             Coordinates (Angstroms)
 Number     Number       Type             X           Y           Z
 ---------------------------------------------------------------------
      1          8           0        0.000000    0.000000    1.450950
      2          8           0        0.000000    0.000000    2.803330
      3          8           0        0.000000    0.000000   -2.803330
      4          8           0        0.000000    0.000000   -1.450950
 ---------------------------------------------------------------------

 SCF Done:  E(ROHF) =  -298.970392258     A.U. after   11 cycles
 E2 =    -0.1552214108D+01 EUMP2 =    -0.30052260636584D+03
 CCSD(T)
 CCSD(T)= -0.30022751396D+03

 Unable to determine electronic state:  an orbital has unidentified symmetry.
 Alpha  occ. eigenvalues --  -20.49795 -20.49794 -20.45893 -20.45892  -1.29243
 Alpha  occ. eigenvalues --   -1.29105  -0.91284  -0.90515  -0.48144  -0.47913
 Alpha  occ. eigenvalues --   -0.44468  -0.42689  -0.39856  -0.38822  -0.26768
 Alpha  occ. eigenvalues --   -0.26464  -0.07283
 Alpha virt. eigenvalues --    0.06740   0.48921   0.55451   0.87172   0.91169
 Alpha virt. eigenvalues --    0.92512   0.93247   0.94579   0.94806   0.96328
 Alpha virt. eigenvalues --    0.99804   1.01878   1.07646   1.09780   1.13030

 Mulliken charges and spin densities:
               1          2
     1  O   -0.173556   0.307581
     2  O   -0.326444   0.192419
     3  O   -0.326444   0.192419
     4  O   -0.173556   0.307581
 Sum of Mulliken charges =  -1.00000   1.00000

 Dipole moment (field-independent basis, Debye):
    X=             -0.0000    Y=             -0.0000    Z=             -0.0000  Tot=              0.0000
 Quadrupole moment (field-independent basis, Debye-Ang):
   XX=            -22.5046   YY=            -23.1054   ZZ=            -51.3231
   XY=              0.0000   XZ=              0.0000   YZ=              0.0000

 37326\CCSD=-300.0960391\CCSD(T)=-300.227514\RMSD=8.047e-09\PG=D*H [C*(
 Normal termination of Gaussian 16 at Sat Jan 14 21:43:06 2023.
