 Gaussian 16, Revision A.03,
 Gaussian 16:  ES64L-G16RevA.03 25-Dec-2016

 ---------------------------------------------------------------
 #p ROCCSD(T)/cc-pVTZ Guess=Read SCF=(VeryTight,CDIIS,VShift=10)
 ---------------------------------------------------------------

 ---------
 O2_O2_121
 ---------
 Symbolic Z-matrix:
 Charge = -1 Multiplicity = 2

                         Standard orientation:
 ---------------------------------------------------------------------
 Center     Atomic      Atomic             Coordinates (Angstroms)
 Number     Number       Type             X           Y           Z
 ---------------------------------------------------------------------
      1          8           0        0.000000    0.000000    1.649170
      2          8           0        0.000000    0.000000    3.001550
      3          8           0        0.000000    0.000000   -3.001550
      4          8           0        0.000000    0.000000   -1.649170
 ---------------------------------------------------------------------

 SCF Done:  E(ROHF) =  -299.133597728     A.U. after    8 cycles
 E2 =    -0.1044285080D+01 EUMP2 =    -0.30017788280742D+03
 CCSD(T)
 CCSD(T)= -0.30018539526D+03

 Unable to determine electronic state:  an orbital has unidentified symmetry.
 Alpha  occ. eigenvalues --  -20.47430 -20.47429 -20.45733 -20.45733  -1.28607
 Alpha  occ. eigenvalues --   -1.28554  -0.90680  -0.90343  -0.45950  -0.45863
 Alpha  occ. eigenvalues --   -0.43641  -0.42812  -0.40932  -0.40268  -0.24796
 Alpha  occ. eigenvalues --   -0.24597  -0.07924
 Alpha virt. eigenvalues --    0.04473   0.48584   0.54820   0.83970   0.93122
 Alpha virt. eigenvalues --    0.93316   0.93419   0.94841   0.94845   0.94967
 Alpha virt. eigenvalues --    1.01586   1.01839   1.06082   1.06228   1.13214

 Mulliken charges and spin densities:
               1          2
     1  O   -0.196618   0.268953
     2  O   -0.303382   0.231047
     3  O   -0.303382   0.231047
     4  O   -0.196618   0.268953
 Sum of Mulliken charges =  -1.00000   1.00000

 Dipole moment (field-independent basis, Debye):
    X=             -0.0000    Y=             -0.0000    Z=             -0.0000  Tot=              0.0000
 Quadrupole moment (field-independent basis, Debye-Ang):
   XX=            -21.4680   YY=            -23.7691   ZZ=            -54.6998
   XY=              0.0000   XZ=              0.0000   YZ=              0.0000

 395711\CCSD=-300.1306399\CCSD(T)=-300.1853953\RMSD=9.654e-09\PG=D*H [C
 Normal termination of Gaussian 16 at Sat Jan 14 22:26:51 2023.
