 Gaussian 16, Revision A.03,
 Gaussian 16:  ES64L-G16RevA.03 25-Dec-2016

 ---------------------------------------------------------------
 #p ROCCSD(T)/cc-pVTZ Guess=Read SCF=(VeryTight,CDIIS,VShift=10)
 ---------------------------------------------------------------

 ---------
 O2_O2_233
 ---------
 Symbolic Z-matrix:
 Charge = -1 Multiplicity = 2

                         Standard orientation:
 ---------------------------------------------------------------------
 Center     Atomic      Atomic             Coordinates (Angstroms)
 Number     Number       Type             X           Y           Z
 ---------------------------------------------------------------------
      1          8           0        0.000000    0.000000    2.442051
      2          8           0        0.000000    0.000000    3.794431
      3          8           0        0.000000    0.000000   -3.794431
      4          8           0        0.000000    0.000000   -2.442051
 ---------------------------------------------------------------------

 SCF Done:  E(ROHF) =  -299.131166289     A.U. after    8 cycles
 E2 =    -0.1046707971D+01 EUMP2 =    -0.30017787425963D+03
 CCSD(T)
 CCSD(T)= -0.30018238636D+03

 Unable to determine electronic state:  an orbital has unidentified symmetry.
 Alpha  occ. eigenvalues --  -20.48437 -20.48437 -20.47529 -20.47529  -1.29980
 Alpha  occ. eigenvalues --   -1.29976  -0.91985  -0.91948  -0.47296  -0.47295
 Alpha  occ. eigenvalues --   -0.44722  -0.44696  -0.42130  -0.41899  -0.26124
 Alpha  occ. eigenvalues --   -0.26121  -0.07597
 Alpha virt. eigenvalues --    0.01161   0.49952   0.50493   0.89620   0.90782
 Alpha virt. eigenvalues --    0.92839   0.92864   0.92977   0.93001   0.95951
 Alpha virt. eigenvalues --    0.96864   1.02105   1.02178   1.02311   1.02383

 Mulliken charges and spin densities:
               1          2
     1  O   -0.219949   0.261817
     2  O   -0.280051   0.238183
     3  O   -0.280051   0.238183
     4  O   -0.219949   0.261817
 Sum of Mulliken charges =  -1.00000   1.00000

 Dipole moment (field-independent basis, Debye):
    X=             -0.0000    Y=              0.0000    Z=              0.0000  Tot=              0.0000
 Quadrupole moment (field-independent basis, Debye-Ang):
   XX=            -21.4432   YY=            -23.7621   ZZ=            -74.6039
   XY=              0.0000   XZ=              0.0000   YZ=              0.0000

 363607\CCSD=-300.1277504\CCSD(T)=-300.1823864\RMSD=1.527e-09\PG=D*H [C
 Normal termination of Gaussian 16 at Sun Jan 15 00:56:46 2023.
