 Gaussian 16, Revision A.03,
 Gaussian 16:  ES64L-G16RevA.03 25-Dec-2016

 ---------------------------------------------------------------
 #p ROCCSD(T)/cc-pVTZ Guess=Read SCF=(VeryTight,CDIIS,VShift=10)
 ---------------------------------------------------------------

 ---------
 O2_O2_254
 ---------
 Symbolic Z-matrix:
 Charge = -1 Multiplicity = 2

                         Standard orientation:
 ---------------------------------------------------------------------
 Center     Atomic      Atomic             Coordinates (Angstroms)
 Number     Number       Type             X           Y           Z
 ---------------------------------------------------------------------
      1          8           0        0.000000    0.000000    2.590716
      2          8           0        0.000000    0.000000    3.943096
      3          8           0        0.000000    0.000000   -3.943096
      4          8           0        0.000000    0.000000   -2.590716
 ---------------------------------------------------------------------

 SCF Done:  E(ROHF) =  -299.131080966     A.U. after    8 cycles
 E2 =    -0.1047037795D+01 EUMP2 =    -0.30017811876099D+03
 CCSD(T)
 CCSD(T)= -0.30018229306D+03

 Unable to determine electronic state:  an orbital has unidentified symmetry.
 Alpha  occ. eigenvalues --  -20.48594 -20.48594 -20.47767 -20.47767  -1.30174
 Alpha  occ. eigenvalues --   -1.30171  -0.92181  -0.92151  -0.47490  -0.47490
 Alpha  occ. eigenvalues --   -0.44918  -0.44905  -0.42308  -0.42109  -0.26321
 Alpha  occ. eigenvalues --   -0.26319  -0.07582
 Alpha virt. eigenvalues --    0.00749   0.49895   0.50136   0.89761   0.90276
 Alpha virt. eigenvalues --    0.92657   0.92666   0.92794   0.92803   0.95963
 Alpha virt. eigenvalues --    0.96327   1.01931   1.01957   1.02137   1.02163

 Mulliken charges and spin densities:
               1          2
     1  O   -0.222604   0.260803
     2  O   -0.277396   0.239197
     3  O   -0.277396   0.239197
     4  O   -0.222604   0.260803
 Sum of Mulliken charges =  -1.00000   1.00000

 Dipole moment (field-independent basis, Debye):
    X=             -0.0000    Y=             -0.0000    Z=             -0.0000  Tot=              0.0000
 Quadrupole moment (field-independent basis, Debye-Ang):
   XX=            -21.4423   YY=            -23.7614   ZZ=            -79.0438
   XY=              0.0000   XZ=              0.0000   YZ=              0.0000

 2322\CCSD=-300.1276542\CCSD(T)=-300.1822931\RMSD=1.363e-09\PG=D*H [C*(
 Normal termination of Gaussian 16 at Sun Jan 15 01:25:43 2023.
