 Gaussian 16, Revision A.03,
 Gaussian 16:  ES64L-G16RevA.03 25-Dec-2016

 ---------------------------------------------------------------
 #p ROCCSD(T)/cc-pVTZ Guess=Read SCF=(VeryTight,CDIIS,VShift=10)
 ---------------------------------------------------------------

 ---------
 O2_O2_234
 ---------
 Symbolic Z-matrix:
 Charge = -1 Multiplicity = 2

                         Standard orientation:
 ---------------------------------------------------------------------
 Center     Atomic      Atomic             Coordinates (Angstroms)
 Number     Number       Type             X           Y           Z
 ---------------------------------------------------------------------
      1          8           0        0.000000    0.000000    2.449130
      2          8           0        0.000000    0.000000    3.801510
      3          8           0        0.000000    0.000000   -3.801510
      4          8           0        0.000000    0.000000   -2.449130
 ---------------------------------------------------------------------

 SCF Done:  E(ROHF) =  -299.131161402     A.U. after    8 cycles
 E2 =    -0.1046724481D+01 EUMP2 =    -0.30017788588289D+03
 CCSD(T)
 CCSD(T)= -0.30018238095D+03

 Unable to determine electronic state:  an orbital has unidentified symmetry.
 Alpha  occ. eigenvalues --  -20.48445 -20.48445 -20.47541 -20.47541  -1.29989
 Alpha  occ. eigenvalues --   -1.29985  -0.91995  -0.91958  -0.47306  -0.47304
 Alpha  occ. eigenvalues --   -0.44732  -0.44707  -0.42138  -0.41910  -0.26134
 Alpha  occ. eigenvalues --   -0.26131  -0.07596
 Alpha virt. eigenvalues --    0.01140   0.49952   0.50474   0.89633   0.90754
 Alpha virt. eigenvalues --    0.92830   0.92854   0.92968   0.92991   0.95955
 Alpha virt. eigenvalues --    0.96830   1.02097   1.02167   1.02303   1.02371

 Mulliken charges and spin densities:
               1          2
     1  O   -0.220084   0.261766
     2  O   -0.279916   0.238234
     3  O   -0.279916   0.238234
     4  O   -0.220084   0.261766
 Sum of Mulliken charges =  -1.00000   1.00000

 Dipole moment (field-independent basis, Debye):
    X=             -0.0000    Y=              0.0000    Z=              0.0000  Tot=              0.0000
 Quadrupole moment (field-independent basis, Debye-Ang):
   XX=            -21.4432   YY=            -23.7621   ZZ=            -74.8103
   XY=              0.0000   XZ=              0.0000   YZ=              0.0000

 363536\CCSD=-300.1277449\CCSD(T)=-300.182381\RMSD=1.521e-09\PG=D*H [C*
 Normal termination of Gaussian 16 at Sun Jan 15 00:58:02 2023.
