 Gaussian 16, Revision A.03,
 Gaussian 16:  ES64L-G16RevA.03 25-Dec-2016

 ---------------------------------------------------------------
 #p ROCCSD(T)/cc-pVTZ Guess=Read SCF=(VeryTight,CDIIS,VShift=10)
 ---------------------------------------------------------------

 ---------
 O2_O2_129
 ---------
 Symbolic Z-matrix:
 Charge = -1 Multiplicity = 2

                         Standard orientation:
 ---------------------------------------------------------------------
 Center     Atomic      Atomic             Coordinates (Angstroms)
 Number     Number       Type             X           Y           Z
 ---------------------------------------------------------------------
      1          8           0        0.000000    0.000000    1.705804
      2          8           0        0.000000    0.000000    3.058184
      3          8           0        0.000000    0.000000   -3.058184
      4          8           0        0.000000    0.000000   -1.705804
 ---------------------------------------------------------------------

 SCF Done:  E(ROHF) =  -299.133187568     A.U. after    8 cycles
 E2 =    -0.1044510740D+01 EUMP2 =    -0.30017769830750D+03
 CCSD(T)
 CCSD(T)= -0.30018487753D+03

 Unable to determine electronic state:  an orbital has unidentified symmetry.
 Alpha  occ. eigenvalues --  -20.47509 -20.47509 -20.45902 -20.45902  -1.28726
 Alpha  occ. eigenvalues --   -1.28685  -0.90778  -0.90509  -0.46064  -0.45997
 Alpha  occ. eigenvalues --   -0.43692  -0.43030  -0.41030  -0.40428  -0.24902
 Alpha  occ. eigenvalues --   -0.24748  -0.07869
 Alpha virt. eigenvalues --    0.04134   0.48517   0.54421   0.83728   0.93171
 Alpha virt. eigenvalues --    0.93389   0.93503   0.94618   0.94747   0.94840
 Alpha virt. eigenvalues --    1.01789   1.02036   1.05441   1.05599   1.13090

 Mulliken charges and spin densities:
               1          2
     1  O   -0.199123   0.268423
     2  O   -0.300877   0.231577
     3  O   -0.300877   0.231577
     4  O   -0.199123   0.268423
 Sum of Mulliken charges =  -1.00000   1.00000

 Dipole moment (field-independent basis, Debye):
    X=             -0.0000    Y=             -0.0000    Z=             -0.0000  Tot=              0.0000
 Quadrupole moment (field-independent basis, Debye-Ang):
   XX=            -21.4637   YY=            -23.7683   ZZ=            -55.9053
   XY=              0.0000   XZ=              0.0000   YZ=              0.0000

 390394\CCSD=-300.1301459\CCSD(T)=-300.1848775\RMSD=7.830e-09\PG=D*H [C
 Normal termination of Gaussian 16 at Sat Jan 14 22:37:41 2023.
