 Gaussian 16, Revision A.03,
 Gaussian 16:  ES64L-G16RevA.03 25-Dec-2016

 ---------------------------------------------------------------
 #p ROCCSD(T)/cc-pVTZ Guess=Read SCF=(VeryTight,CDIIS,VShift=10)
 ---------------------------------------------------------------

 ---------
 O2_O2_298
 ---------
 Symbolic Z-matrix:
 Charge = -1 Multiplicity = 2

                         Standard orientation:
 ---------------------------------------------------------------------
 Center     Atomic      Atomic             Coordinates (Angstroms)
 Number     Number       Type             X           Y           Z
 ---------------------------------------------------------------------
      1          8           0        0.000000    0.000000    2.902204
      2          8           0        0.000000    0.000000    4.254584
      3          8           0        0.000000    0.000000   -4.254584
      4          8           0        0.000000    0.000000   -2.902204
 ---------------------------------------------------------------------

 SCF Done:  E(ROHF) =  -299.130973102     A.U. after    8 cycles
 E2 =    -0.1047628821D+01 EUMP2 =    -0.30017860192284D+03
 CCSD(T)
 CCSD(T)= -0.30018218065D+03

 Unable to determine electronic state:  an orbital has unidentified symmetry.
 Alpha  occ. eigenvalues --  -20.48886 -20.48886 -20.48198 -20.48198  -1.30530
 Alpha  occ. eigenvalues --   -1.30528  -0.92541  -0.92519  -0.47846  -0.47846
 Alpha  occ. eigenvalues --   -0.45282  -0.45279  -0.42639  -0.42490  -0.26682
 Alpha  occ. eigenvalues --   -0.26681  -0.07561
 Alpha virt. eigenvalues --    0.00005   0.49616   0.49649   0.89601   0.89672
 Alpha virt. eigenvalues --    0.92311   0.92312   0.92448   0.92449   0.95713
 Alpha virt. eigenvalues --    0.95755   1.01581   1.01584   1.01788   1.01791

 Mulliken charges and spin densities:
               1          2
     1  O   -0.227159   0.259038
     2  O   -0.272841   0.240962
     3  O   -0.272841   0.240962
     4  O   -0.227159   0.259038
 Sum of Mulliken charges =  -1.00000   1.00000

 Dipole moment (field-independent basis, Debye):
    X=             -0.0000    Y=              0.0000    Z=              0.0000  Tot=              0.0000
 Quadrupole moment (field-independent basis, Debye-Ang):
   XX=            -21.4412   YY=            -23.7604   ZZ=            -89.0640
   XY=              0.0000   XZ=              0.0000   YZ=              0.0000

 360554\CCSD=-300.1275334\CCSD(T)=-300.1821807\RMSD=1.014e-09\PG=D*H [C
 Normal termination of Gaussian 16 at Sun Jan 15 02:25:22 2023.
