 Gaussian 16, Revision A.03,
 Gaussian 16:  ES64L-G16RevA.03 25-Dec-2016

 -------------------------------------
 #p CCSD(T)/cc-pVTZ Guess=Read SCF=XQC
 -------------------------------------

 ---------
 O2_O2_220
 ---------
 Symbolic Z-matrix:
 Charge = -2 Multiplicity = 3

                         Standard orientation:
 ---------------------------------------------------------------------
 Center     Atomic      Atomic             Coordinates (Angstroms)
 Number     Number       Type             X           Y           Z
 ---------------------------------------------------------------------
      1          8           0        0.000000    0.000000    2.350020
      2          8           0        0.000000    0.000000    3.702400
      3          8           0        0.000000    0.000000   -3.702400
      4          8           0        0.000000    0.000000   -2.350020
 ---------------------------------------------------------------------

 SCF Done:  E(UHF) =  -298.959188716     A.U. after   11 cycles
 E2 =    -0.1230609029D+01 EUMP2 =    -0.30018979774437D+03
 CCSD(T)
 CCSD(T)= -0.30012962962D+03

 The electronic state is 3-SGG.
 Alpha  occ. eigenvalues --  -20.22576 -20.22576 -20.20495 -20.20495  -1.07382
 Alpha  occ. eigenvalues --   -1.07381  -0.70986  -0.70980  -0.25918  -0.25918
 Alpha  occ. eigenvalues --   -0.25915  -0.25915  -0.20309  -0.20268  -0.04992
 Alpha  occ. eigenvalues --   -0.04992  -0.04987  -0.04987
 Alpha virt. eigenvalues --    0.71274   0.72297   1.11230   1.12749   1.12820
 Alpha virt. eigenvalues --    1.12820   1.12866   1.12866   1.16368   1.18151
 Alpha virt. eigenvalues --    1.21402   1.21402   1.21534   1.21534   1.34929

  Beta  occ. eigenvalues --  -20.19139 -20.19139 -20.17852 -20.17852  -0.99293
  Beta  occ. eigenvalues --   -0.99281  -0.59692  -0.59597  -0.17792  -0.17730
  Beta  occ. eigenvalues --   -0.11478  -0.11478  -0.11223  -0.11223   0.23723
  Beta  occ. eigenvalues --    0.23723
  Beta virt. eigenvalues --    0.32968   0.32968   0.74373   0.75573   1.13194
  Beta virt. eigenvalues --    1.14373   1.17171   1.17729   1.17729   1.17766
  Beta virt. eigenvalues --    1.17766   1.19211   1.26732   1.26732   1.26871

 Mulliken charges and spin densities:
               1          2
     1  O   -0.435004   0.584981
     2  O   -0.564996   0.415019
     3  O   -0.564996   0.415019
     4  O   -0.435004   0.584981
 Sum of Mulliken charges =  -2.00000   2.00000

 Dipole moment (field-independent basis, Debye):
    X=             -0.0000    Y=              0.0000    Z=              0.0000  Tot=              0.0000
 Quadrupole moment (field-independent basis, Debye-Ang):
   XX=            -24.9477   YY=            -24.9477   ZZ=           -124.0998
   XY=              0.0000   XZ=              0.0000   YZ=              0.0000

 Normal termination of Gaussian 16 at Sun Jan  1 00:13:13 2023.
