 Gaussian 16, Revision A.03,
 Gaussian 16:  ES64L-G16RevA.03 25-Dec-2016

 -------------------------------------
 #p CCSD(T)/cc-pVTZ Guess=Read SCF=XQC
 -------------------------------------

 ---------
 O2_O2_217
 ---------
 Symbolic Z-matrix:
 Charge = -2 Multiplicity = 3

                         Standard orientation:
 ---------------------------------------------------------------------
 Center     Atomic      Atomic             Coordinates (Angstroms)
 Number     Number       Type             X           Y           Z
 ---------------------------------------------------------------------
      1          8           0        0.000000    0.000000    2.328781
      2          8           0        0.000000    0.000000    3.681162
      3          8           0        0.000000    0.000000   -3.681162
      4          8           0        0.000000    0.000000   -2.328781
 ---------------------------------------------------------------------

 SCF Done:  E(UHF) =  -298.958934553     A.U. after   11 cycles
 E2 =    -0.1228221340D+01 EUMP2 =    -0.30018715589246D+03
 CCSD(T)
 CCSD(T)= -0.30012883141D+03

 The electronic state is 3-SGG.
 Alpha  occ. eigenvalues --  -20.22529 -20.22529 -20.20416 -20.20416  -1.07321
 Alpha  occ. eigenvalues --   -1.07320  -0.70922  -0.70916  -0.25858  -0.25858
 Alpha  occ. eigenvalues --   -0.25855  -0.25855  -0.20248  -0.20201  -0.04928
 Alpha  occ. eigenvalues --   -0.04928  -0.04922  -0.04922
 Alpha virt. eigenvalues --    0.71286   0.72415   1.11193   1.12866   1.12877
 Alpha virt. eigenvalues --    1.12877   1.12930   1.12930   1.16366   1.18370
 Alpha virt. eigenvalues --    1.21455   1.21455   1.21606   1.21606   1.34989

  Beta  occ. eigenvalues --  -20.19087 -20.19086 -20.17780 -20.17780  -0.99231
  Beta  occ. eigenvalues --   -0.99219  -0.59630  -0.59532  -0.17731  -0.17662
  Beta  occ. eigenvalues --   -0.11420  -0.11420  -0.11159  -0.11159   0.23749
  Beta  occ. eigenvalues --    0.23749
  Beta virt. eigenvalues --    0.33071   0.33071   0.74376   0.75699   1.13171
  Beta virt. eigenvalues --    1.14466   1.17161   1.17786   1.17786   1.17828
  Beta virt. eigenvalues --    1.17828   1.19446   1.26786   1.26786   1.26945

 Mulliken charges and spin densities:
               1          2
     1  O   -0.434079   0.586213
     2  O   -0.565921   0.413787
     3  O   -0.565921   0.413787
     4  O   -0.434079   0.586213
 Sum of Mulliken charges =  -2.00000   2.00000

 Dipole moment (field-independent basis, Debye):
    X=             -0.0000    Y=              0.0000    Z=             -0.0000  Tot=              0.0000
 Quadrupole moment (field-independent basis, Debye-Ang):
   XX=            -24.9482   YY=            -24.9482   ZZ=           -122.9090
   XY=              0.0000   XZ=              0.0000   YZ=              0.0000

 Normal termination of Gaussian 16 at Sun Jan  1 00:09:26 2023.
