 Gaussian 16, Revision A.03,
 Gaussian 16:  ES64L-G16RevA.03 25-Dec-2016

 -------------------------------------
 #p CCSD(T)/cc-pVTZ Guess=Read SCF=XQC
 -------------------------------------

 --------
 O2_O2_72
 --------
 Symbolic Z-matrix:
 Charge = -2 Multiplicity = 3

                         Standard orientation:
 ---------------------------------------------------------------------
 Center     Atomic      Atomic             Coordinates (Angstroms)
 Number     Number       Type             X           Y           Z
 ---------------------------------------------------------------------
      1          8           0        0.000000    0.000000    1.302285
      2          8           0        0.000000    0.000000    2.654665
      3          8           0        0.000000    0.000000   -2.654665
      4          8           0        0.000000    0.000000   -1.302285
 ---------------------------------------------------------------------

 SCF Done:  E(UHF) =  -298.960130177     A.U. after   12 cycles
 E2 =    -0.1088128558D+01 EUMP2 =    -0.30004825873469D+03
 CCSD(T)
 CCSD(T)= -0.30007333906D+03

 The electronic state is 3-SGG.
 Alpha  occ. eigenvalues --  -20.20598 -20.20598 -20.14244 -20.14243  -1.03803
 Alpha  occ. eigenvalues --   -1.03521  -0.67161  -0.65972  -0.22589  -0.22589
 Alpha  occ. eigenvalues --   -0.22047  -0.22047  -0.17471  -0.14238  -0.00824
 Alpha  occ. eigenvalues --   -0.00824  -0.00162  -0.00162
 Alpha virt. eigenvalues --    0.74681   0.81168   1.13547   1.13547   1.15752
 Alpha virt. eigenvalues --    1.17103   1.18429   1.18429   1.20281   1.22516
 Alpha virt. eigenvalues --    1.22516   1.33006   1.33006   1.38218   1.38952

  Beta  occ. eigenvalues --  -20.16321 -20.16318 -20.12272 -20.12272  -0.95208
  Beta  occ. eigenvalues --   -0.94863  -0.56305  -0.54124  -0.15117  -0.11275
  Beta  occ. eigenvalues --   -0.07938  -0.07938  -0.06623  -0.06623   0.24237
  Beta  occ. eigenvalues --    0.24237
  Beta virt. eigenvalues --    0.42123   0.42123   0.77985   0.85053   1.16877
  Beta virt. eigenvalues --    1.17703   1.19881   1.19881   1.22352   1.22580
  Beta virt. eigenvalues --    1.22580   1.26935   1.26935   1.38602   1.38999

 Mulliken charges and spin densities:
               1          2
     1  O   -0.338217   0.722326
     2  O   -0.661783   0.277674
     3  O   -0.661783   0.277674
     4  O   -0.338217   0.722326
 Sum of Mulliken charges =  -2.00000   2.00000

 Dipole moment (field-independent basis, Debye):
    X=             -0.0000    Y=              0.0000    Z=             -0.0000  Tot=              0.0000
 Quadrupole moment (field-independent basis, Debye-Ang):
   XX=            -25.0637   YY=            -25.0637   ZZ=            -76.6927
   XY=              0.0000   XZ=              0.0000   YZ=              0.0000

 Normal termination of Gaussian 16 at Sat Dec 31 21:10:30 2022.
