 Gaussian 16, Revision A.03,
 Gaussian 16:  ES64L-G16RevA.03 25-Dec-2016

 -------------------------------------
 #p CCSD(T)/cc-pVTZ Guess=Read SCF=XQC
 -------------------------------------

 ---------
 O2_O2_187
 ---------
 Symbolic Z-matrix:
 Charge = -2 Multiplicity = 3

                         Standard orientation:
 ---------------------------------------------------------------------
 Center     Atomic      Atomic             Coordinates (Angstroms)
 Number     Number       Type             X           Y           Z
 ---------------------------------------------------------------------
      1          8           0        0.000000    0.000000    2.116403
      2          8           0        0.000000    0.000000    3.468783
      3          8           0        0.000000    0.000000   -3.468783
      4          8           0        0.000000    0.000000   -2.116403
 ---------------------------------------------------------------------

 SCF Done:  E(UHF) =  -298.956451237     A.U. after   11 cycles
 E2 =    -0.1203786059D+01 EUMP2 =    -0.30016023729541D+03
 CCSD(T)
 CCSD(T)= -0.30012022108D+03

 The electronic state is 3-SGG.
 Alpha  occ. eigenvalues --  -20.22045 -20.22045 -20.19560 -20.19560  -1.06676
 Alpha  occ. eigenvalues --   -1.06674  -0.70241  -0.70219  -0.25222  -0.25222
 Alpha  occ. eigenvalues --   -0.25213  -0.25213  -0.19598  -0.19467  -0.04248
 Alpha  occ. eigenvalues --   -0.04248  -0.04228  -0.04228
 Alpha virt. eigenvalues --    0.71197   0.73839   1.10146   1.13455   1.13455
 Alpha virt. eigenvalues --    1.13643   1.13643   1.14018   1.16231   1.21943
 Alpha virt. eigenvalues --    1.21948   1.21948   1.22475   1.22475   1.35618

  Beta  occ. eigenvalues --  -20.18533 -20.18533 -20.16991 -20.16991  -0.98570
  Beta  occ. eigenvalues --   -0.98551  -0.58971  -0.58821  -0.17086  -0.16911
  Beta  occ. eigenvalues --   -0.10810  -0.10810  -0.10475  -0.10475   0.24014
  Beta  occ. eigenvalues --    0.24014
  Beta virt. eigenvalues --    0.34199   0.34199   0.74152   0.77247   1.12282
  Beta virt. eigenvalues --    1.15368   1.16960   1.18373   1.18373   1.18514
  Beta virt. eigenvalues --    1.18514   1.23182   1.27279   1.27279   1.27837

 Mulliken charges and spin densities:
               1          2
     1  O   -0.423589   0.600469
     2  O   -0.576411   0.399531
     3  O   -0.576411   0.399531
     4  O   -0.423589   0.600469
 Sum of Mulliken charges =  -2.00000   2.00000

 Dipole moment (field-independent basis, Debye):
    X=             -0.0000    Y=             -0.0000    Z=             -0.0000  Tot=              0.0000
 Quadrupole moment (field-independent basis, Debye-Ang):
   XX=            -24.9541   YY=            -24.9541   ZZ=           -111.5073
   XY=              0.0000   XZ=              0.0000   YZ=              0.0000

 Normal termination of Gaussian 16 at Sat Dec 31 23:32:12 2022.
