 Gaussian 16, Revision A.03,
 Gaussian 16:  ES64L-G16RevA.03 25-Dec-2016

 -------------------------------------
 #p CCSD(T)/cc-pVTZ Guess=Read SCF=XQC
 -------------------------------------

 ---------
 O2_O2_205
 ---------
 Symbolic Z-matrix:
 Charge = -2 Multiplicity = 3

                         Standard orientation:
 ---------------------------------------------------------------------
 Center     Atomic      Atomic             Coordinates (Angstroms)
 Number     Number       Type             X           Y           Z
 ---------------------------------------------------------------------
      1          8           0        0.000000    0.000000    2.243830
      2          8           0        0.000000    0.000000    3.596210
      3          8           0        0.000000    0.000000   -3.596210
      4          8           0        0.000000    0.000000   -2.243830
 ---------------------------------------------------------------------

 SCF Done:  E(UHF) =  -298.957920911     A.U. after   10 cycles
 E2 =    -0.1218580802D+01 EUMP2 =    -0.30017650171378D+03
 CCSD(T)
 CCSD(T)= -0.30012552791D+03

 The electronic state is 3-SGG.
 Alpha  occ. eigenvalues --  -20.22338 -20.22338 -20.20090 -20.20090  -1.07071
 Alpha  occ. eigenvalues --   -1.07070  -0.70659  -0.70649  -0.25611  -0.25611
 Alpha  occ. eigenvalues --   -0.25607  -0.25607  -0.19994  -0.19922  -0.04666
 Alpha  occ. eigenvalues --   -0.04666  -0.04656  -0.04656
 Alpha virt. eigenvalues --    0.71300   0.72931   1.10936   1.13108   1.13108
 Alpha virt. eigenvalues --    1.13197   1.13197   1.13340   1.16325   1.19459
 Alpha virt. eigenvalues --    1.21665   1.21665   1.21918   1.21918   1.35233

  Beta  occ. eigenvalues --  -20.18870 -20.18870 -20.17479 -20.17478  -0.98977
  Beta  occ. eigenvalues --   -0.98962  -0.59375  -0.59261  -0.17478  -0.17378
  Beta  occ. eigenvalues --   -0.11184  -0.11184  -0.10897  -0.10897   0.23855
  Beta  occ. eigenvalues --    0.23855
  Beta virt. eigenvalues --    0.33499   0.33499   0.74346   0.76258   1.12975
  Beta virt. eigenvalues --    1.14841   1.17087   1.18018   1.18018   1.18087
  Beta virt. eigenvalues --    1.18087   1.20604   1.26996   1.26996   1.27264

 Mulliken charges and spin densities:
               1          2
     1  O   -0.430169   0.591464
     2  O   -0.569831   0.408536
     3  O   -0.569831   0.408536
     4  O   -0.430169   0.591464
 Sum of Mulliken charges =  -2.00000   2.00000

 Dipole moment (field-independent basis, Debye):
    X=             -0.0000    Y=             -0.0000    Z=              0.0000  Tot=              0.0000
 Quadrupole moment (field-independent basis, Debye-Ang):
   XX=            -24.9501   YY=            -24.9501   ZZ=           -118.2376
   XY=              0.0000   XZ=              0.0000   YZ=              0.0000

 Normal termination of Gaussian 16 at Sat Dec 31 23:54:57 2022.
