 Gaussian 16, Revision A.03,
 Gaussian 16:  ES64L-G16RevA.03 25-Dec-2016

 -------------------------------------
 #p CCSD(T)/cc-pVTZ Guess=Read SCF=XQC
 -------------------------------------

 --------
 O2_O2_82
 --------
 Symbolic Z-matrix:
 Charge = -2 Multiplicity = 3

                         Standard orientation:
 ---------------------------------------------------------------------
 Center     Atomic      Atomic             Coordinates (Angstroms)
 Number     Number       Type             X           Y           Z
 ---------------------------------------------------------------------
      1          8           0        0.000000    0.000000    1.373078
      2          8           0        0.000000    0.000000    2.725458
      3          8           0        0.000000    0.000000   -2.725458
      4          8           0        0.000000    0.000000   -1.373078
 ---------------------------------------------------------------------

 SCF Done:  E(UHF) =  -298.957960138     A.U. after   12 cycles
 E2 =    -0.1100165893D+01 EUMP2 =    -0.30005812603066D+03
 CCSD(T)
 CCSD(T)= -0.30007850179D+03

 The electronic state is 3-SGG.
 Alpha  occ. eigenvalues --  -20.20675 -20.20675 -20.14911 -20.14911  -1.04045
 Alpha  occ. eigenvalues --   -1.03858  -0.67399  -0.66552  -0.22779  -0.22779
 Alpha  occ. eigenvalues --   -0.22392  -0.22392  -0.17505  -0.15029  -0.01190
 Alpha  occ. eigenvalues --   -0.01190  -0.00677  -0.00677
 Alpha virt. eigenvalues --    0.73899   0.80461   1.13701   1.13701   1.14875
 Alpha virt. eigenvalues --    1.15684   1.17895   1.17895   1.18430   1.22287
 Alpha virt. eigenvalues --    1.22287   1.31456   1.31456   1.38014   1.38616

  Beta  occ. eigenvalues --  -20.16516 -20.16513 -20.12853 -20.12853  -0.95552
  Beta  occ. eigenvalues --   -0.95299  -0.56426  -0.54788  -0.15121  -0.12142
  Beta  occ. eigenvalues --   -0.08205  -0.08205  -0.07074  -0.07074   0.24376
  Beta  occ. eigenvalues --    0.24376
  Beta virt. eigenvalues --    0.41016   0.41016   0.77050   0.84326   1.16276
  Beta virt. eigenvalues --    1.16793   1.19762   1.19762   1.19792   1.22162
  Beta virt. eigenvalues --    1.22162   1.26870   1.26870   1.37366   1.37366

 Mulliken charges and spin densities:
               1          2
     1  O   -0.350804   0.704984
     2  O   -0.649196   0.295016
     3  O   -0.649196   0.295016
     4  O   -0.350804   0.704984
 Sum of Mulliken charges =  -2.00000   2.00000

 Dipole moment (field-independent basis, Debye):
    X=             -0.0000    Y=             -0.0000    Z=             -0.0000  Tot=              0.0000
 Quadrupole moment (field-independent basis, Debye-Ang):
   XX=            -25.0458   YY=            -25.0458   ZZ=            -79.1335
   XY=              0.0000   XZ=              0.0000   YZ=              0.0000

 Normal termination of Gaussian 16 at Sat Dec 31 21:22:21 2022.
