 Gaussian 16, Revision A.03,
 Gaussian 16:  ES64L-G16RevA.03 25-Dec-2016

 -------------------------------------
 #p CCSD(T)/cc-pVTZ Guess=Read SCF=XQC
 -------------------------------------

 ---------
 O2_O2_156
 ---------
 Symbolic Z-matrix:
 Charge = -2 Multiplicity = 3

                         Standard orientation:
 ---------------------------------------------------------------------
 Center     Atomic      Atomic             Coordinates (Angstroms)
 Number     Number       Type             X           Y           Z
 ---------------------------------------------------------------------
      1          8           0        0.000000    0.000000    1.896945
      2          8           0        0.000000    0.000000    3.249325
      3          8           0        0.000000    0.000000   -3.249325
      4          8           0        0.000000    0.000000   -1.896945
 ---------------------------------------------------------------------

 SCF Done:  E(UHF) =  -298.954378213     A.U. after   11 cycles
 E2 =    -0.1176946572D+01 EUMP2 =    -0.30013132478438D+03
 CCSD(T)
 CCSD(T)= -0.30010996958D+03

 The electronic state is 3-SGG.
 Alpha  occ. eigenvalues --  -20.21547 -20.21547 -20.18511 -20.18511  -1.05941
 Alpha  occ. eigenvalues --   -1.05932  -0.69454  -0.69388  -0.24506  -0.24506
 Alpha  occ. eigenvalues --   -0.24476  -0.24476  -0.18884  -0.18553  -0.03461
 Alpha  occ. eigenvalues --   -0.03461  -0.03399  -0.03399
 Alpha virt. eigenvalues --    0.70829   0.75696   1.07949   1.13994   1.13994
 Alpha virt. eigenvalues --    1.14582   1.14582   1.14918   1.16304   1.22248
 Alpha virt. eigenvalues --    1.22248   1.23840   1.23840   1.29581   1.36342

  Beta  occ. eigenvalues --  -20.17930 -20.17929 -20.16037 -20.16036  -0.97798
  Beta  occ. eigenvalues --   -0.97763  -0.58216  -0.57952  -0.16384  -0.15957
  Beta  occ. eigenvalues --   -0.10111  -0.10111  -0.09661  -0.09661   0.24275
  Beta  occ. eigenvalues --    0.24275
  Beta virt. eigenvalues --    0.35618   0.35618   0.73590   0.79277   1.10217
  Beta virt. eigenvalues --    1.16094   1.17056   1.18972   1.18972   1.19383
  Beta virt. eigenvalues --    1.19383   1.27551   1.27551   1.29264   1.29264

 Mulliken charges and spin densities:
               1          2
     1  O   -0.409591   0.620214
     2  O   -0.590409   0.379786
     3  O   -0.590409   0.379786
     4  O   -0.409591   0.620214
 Sum of Mulliken charges =  -2.00000   2.00000

 Dipole moment (field-independent basis, Debye):
    X=             -0.0000    Y=              0.0000    Z=              0.0000  Tot=              0.0000
 Quadrupole moment (field-independent basis, Debye-Ang):
   XX=            -24.9659   YY=            -24.9659   ZZ=           -100.7061
   XY=              0.0000   XZ=              0.0000   YZ=              0.0000

 Normal termination of Gaussian 16 at Sat Dec 31 22:54:06 2022.
