 Gaussian 16, Revision A.03,
 Gaussian 16:  ES64L-G16RevA.03 25-Dec-2016

 -------------------------------------
 #p CCSD(T)/cc-pVTZ Guess=Read SCF=XQC
 -------------------------------------

 ---------
 O2_O2_100
 ---------
 Symbolic Z-matrix:
 Charge = -2 Multiplicity = 3

                         Standard orientation:
 ---------------------------------------------------------------------
 Center     Atomic      Atomic             Coordinates (Angstroms)
 Number     Number       Type             X           Y           Z
 ---------------------------------------------------------------------
      1          8           0        0.000000    0.000000    1.500504
      2          8           0        0.000000    0.000000    2.852885
      3          8           0        0.000000    0.000000   -2.852885
      4          8           0        0.000000    0.000000   -1.500504
 ---------------------------------------------------------------------

 SCF Done:  E(UHF) =  -298.955201452     A.U. after   11 cycles
 E2 =    -0.1120928730D+01 EUMP2 =    -0.30007613018208D+03
 CCSD(T)
 CCSD(T)= -0.30008715083D+03

 The electronic state is 3-SGG.
 Alpha  occ. eigenvalues --  -20.20827 -20.20827 -20.15981 -20.15981  -1.04502
 Alpha  occ. eigenvalues --   -1.04412  -0.67885  -0.67426  -0.23166  -0.23166
 Alpha  occ. eigenvalues --   -0.22955  -0.22955  -0.17712  -0.16180  -0.01805
 Alpha  occ. eigenvalues --   -0.01805  -0.01484  -0.01484
 Alpha virt. eigenvalues --    0.72520   0.79274   1.10314   1.14042   1.14042
 Alpha virt. eigenvalues --    1.15622   1.16973   1.16973   1.17545   1.22121
 Alpha virt. eigenvalues --    1.22121   1.28903   1.28903   1.37612   1.38034

  Beta  occ. eigenvalues --  -20.16852 -20.16850 -20.13787 -20.13787  -0.96151
  Beta  occ. eigenvalues --   -0.96002  -0.56783  -0.55787  -0.15281  -0.13401
  Beta  occ. eigenvalues --   -0.08689  -0.08689  -0.07811  -0.07811   0.24491
  Beta  occ. eigenvalues --    0.24491
  Beta virt. eigenvalues --    0.39313   0.39313   0.75420   0.83095   1.12390
  Beta virt. eigenvalues --    1.16719   1.18401   1.19659   1.19659   1.21425
  Beta virt. eigenvalues --    1.21425   1.27000   1.27000   1.34654   1.34654

 Mulliken charges and spin densities:
               1          2
     1  O   -0.369957   0.677711
     2  O   -0.630043   0.322289
     3  O   -0.630043   0.322289
     4  O   -0.369957   0.677711
 Sum of Mulliken charges =  -2.00000   2.00000

 Dipole moment (field-independent basis, Debye):
    X=             -0.0000    Y=              0.0000    Z=             -0.0000  Tot=              0.0000
 Quadrupole moment (field-independent basis, Debye-Ang):
   XX=            -25.0175   YY=            -25.0175   ZZ=            -83.8222
   XY=              0.0000   XZ=              0.0000   YZ=              0.0000

 Normal termination of Gaussian 16 at Sat Dec 31 21:44:30 2022.
