 Gaussian 16, Revision A.03,
 Gaussian 16:  ES64L-G16RevA.03 25-Dec-2016

 -------------------------------------
 #p CCSD(T)/cc-pVTZ Guess=Read SCF=XQC
 -------------------------------------

 ---------
 O2_O2_168
 ---------
 Symbolic Z-matrix:
 Charge = -2 Multiplicity = 3

                         Standard orientation:
 ---------------------------------------------------------------------
 Center     Atomic      Atomic             Coordinates (Angstroms)
 Number     Number       Type             X           Y           Z
 ---------------------------------------------------------------------
      1          8           0        0.000000    0.000000    1.981897
      2          8           0        0.000000    0.000000    3.334277
      3          8           0        0.000000    0.000000   -3.334277
      4          8           0        0.000000    0.000000   -1.981897
 ---------------------------------------------------------------------

 SCF Done:  E(UHF) =  -298.955075778     A.U. after   11 cycles
 E2 =    -0.1187585039D+01 EUMP2 =    -0.30014266081746D+03
 CCSD(T)
 CCSD(T)= -0.30011411715D+03

 The electronic state is 3-SGG.
 Alpha  occ. eigenvalues --  -20.21737 -20.21737 -20.18940 -20.18940  -1.06233
 Alpha  occ. eigenvalues --   -1.06228  -0.69768  -0.69725  -0.24789  -0.24789
 Alpha  occ. eigenvalues --   -0.24770  -0.24770  -0.19163  -0.18929  -0.03776
 Alpha  occ. eigenvalues --   -0.03776  -0.03735  -0.03735
 Alpha virt. eigenvalues --    0.70965   0.74946   1.08825   1.13803   1.13803
 Alpha virt. eigenvalues --    1.14189   1.14189   1.14615   1.16222   1.22170
 Alpha virt. eigenvalues --    1.22170   1.23232   1.23232   1.26053   1.36051

  Beta  occ. eigenvalues --  -20.18165 -20.18165 -20.16425 -20.16425  -0.98108
  Beta  occ. eigenvalues --   -0.98081  -0.58516  -0.58308  -0.16657  -0.16352
  Beta  occ. eigenvalues --   -0.10390  -0.10390  -0.09990  -0.09990   0.24178
  Beta  occ. eigenvalues --    0.24178
  Beta virt. eigenvalues --    0.35032   0.35032   0.73800   0.78458   1.11049
  Beta virt. eigenvalues --    1.15843   1.16958   1.18747   1.18747   1.19024
  Beta virt. eigenvalues --    1.19024   1.27328   1.27491   1.27491   1.28625

 Mulliken charges and spin densities:
               1          2
     1  O   -0.415483   0.611825
     2  O   -0.584517   0.388175
     3  O   -0.584517   0.388175
     4  O   -0.415483   0.611825
 Sum of Mulliken charges =  -2.00000   2.00000

 Dipole moment (field-independent basis, Debye):
    X=             -0.0000    Y=             -0.0000    Z=              0.0000  Tot=              0.0000
 Quadrupole moment (field-independent basis, Debye-Ang):
   XX=            -24.9604   YY=            -24.9604   ZZ=           -104.7671
   XY=              0.0000   XZ=              0.0000   YZ=              0.0000

 Normal termination of Gaussian 16 at Sat Dec 31 23:08:40 2022.
