 Gaussian 16, Revision A.03,
 Gaussian 16:  ES64L-G16RevA.03 25-Dec-2016

 -------------------------------------
 #p CCSD(T)/cc-pVTZ Guess=Read SCF=XQC
 -------------------------------------

 ---------
 O2_O2_288
 ---------
 Symbolic Z-matrix:
 Charge = -2 Multiplicity = 3

                         Standard orientation:
 ---------------------------------------------------------------------
 Center     Atomic      Atomic             Coordinates (Angstroms)
 Number     Number       Type             X           Y           Z
 ---------------------------------------------------------------------
      1          8           0        0.000000    0.000000    2.831412
      2          8           0        0.000000    0.000000    4.183792
      3          8           0        0.000000    0.000000   -4.183792
      4          8           0        0.000000    0.000000   -2.831412
 ---------------------------------------------------------------------

 SCF Done:  E(UHF) =  -298.964582231     A.U. after   10 cycles
 E2 =    -0.1283278431D+01 EUMP2 =    -0.30024786066123D+03
 CCSD(T)
 CCSD(T)= -0.30014518549D+03

 The electronic state is 3-SGG.
 Alpha  occ. eigenvalues --  -20.23535 -20.23535 -20.21997 -20.21997  -1.08578
 Alpha  occ. eigenvalues --   -1.08578  -0.72234  -0.72234  -0.27105  -0.27105
 Alpha  occ. eigenvalues --   -0.27105  -0.27105  -0.21544  -0.21542  -0.06238
 Alpha  occ. eigenvalues --   -0.06238  -0.06237  -0.06237
 Alpha virt. eigenvalues --    0.70444   0.70509   1.10751   1.10847   1.11654
 Alpha virt. eigenvalues --    1.11654   1.11656   1.11656   1.15663   1.15740
 Alpha virt. eigenvalues --    1.20237   1.20237   1.20241   1.20241   1.33754

  Beta  occ. eigenvalues --  -20.20199 -20.20199 -20.19251 -20.19250  -1.00502
  Beta  occ. eigenvalues --   -1.00497  -0.60909  -0.60858  -0.19026  -0.19018
  Beta  occ. eigenvalues --   -0.12618  -0.12618  -0.12457  -0.12457   0.23181
  Beta  occ. eigenvalues --    0.23181
  Beta virt. eigenvalues --    0.31014   0.31014   0.73619   0.73696   1.12616
  Beta virt. eigenvalues --    1.12704   1.16536   1.16576   1.16576   1.16578
  Beta virt. eigenvalues --    1.16578   1.16633   1.25556   1.25556   1.25561

 Mulliken charges and spin densities:
               1          2
     1  O   -0.451652   0.563214
     2  O   -0.548348   0.436786
     3  O   -0.548348   0.436786
     4  O   -0.451652   0.563214
 Sum of Mulliken charges =  -2.00000   2.00000

 Dipole moment (field-independent basis, Debye):
    X=             -0.0000    Y=              0.0000    Z=              0.0000  Tot=              0.0000
 Quadrupole moment (field-independent basis, Debye-Ang):
   XX=            -24.9421   YY=            -24.9421   ZZ=           -153.5383
   XY=              0.0000   XZ=              0.0000   YZ=              0.0000

 Normal termination of Gaussian 16 at Sun Jan  1 01:36:16 2023.
