 Gaussian 16, Revision A.03,
 Gaussian 16:  ES64L-G16RevA.03 25-Dec-2016

 -------------------------------------
 #p CCSD(T)/cc-pVTZ Guess=Read SCF=XQC
 -------------------------------------

 --------
 O2_O2_81
 --------
 Symbolic Z-matrix:
 Charge = -2 Multiplicity = 3

                         Standard orientation:
 ---------------------------------------------------------------------
 Center     Atomic      Atomic             Coordinates (Angstroms)
 Number     Number       Type             X           Y           Z
 ---------------------------------------------------------------------
      1          8           0        0.000000    0.000000    1.365998
      2          8           0        0.000000    0.000000    2.718378
      3          8           0        0.000000    0.000000   -2.718378
      4          8           0        0.000000    0.000000   -1.365998
 ---------------------------------------------------------------------

 SCF Done:  E(UHF) =  -298.958158333     A.U. after   12 cycles
 E2 =    -0.1098975699D+01 EUMP2 =    -0.30005713403214D+03
 CCSD(T)
 CCSD(T)= -0.30007799900D+03

 The electronic state is 3-SGG.
 Alpha  occ. eigenvalues --  -20.20668 -20.20667 -20.14847 -20.14847  -1.04020
 Alpha  occ. eigenvalues --   -1.03825  -0.67374  -0.66497  -0.22759  -0.22759
 Alpha  occ. eigenvalues --   -0.22359  -0.22359  -0.17498  -0.14955  -0.01155
 Alpha  occ. eigenvalues --   -0.01155  -0.00628  -0.00628
 Alpha virt. eigenvalues --    0.73978   0.80530   1.13682   1.13682   1.15156
 Alpha virt. eigenvalues --    1.15689   1.17948   1.17948   1.18523   1.22305
 Alpha virt. eigenvalues --    1.22305   1.31608   1.31608   1.38035   1.38649

  Beta  occ. eigenvalues --  -20.16497 -20.16494 -20.12797 -20.12797  -0.95518
  Beta  occ. eigenvalues --   -0.95257  -0.56411  -0.54726  -0.15117  -0.12061
  Beta  occ. eigenvalues --   -0.08178  -0.08178  -0.07030  -0.07030   0.24365
  Beta  occ. eigenvalues --    0.24365
  Beta virt. eigenvalues --    0.41121   0.41121   0.77144   0.84397   1.16474
  Beta virt. eigenvalues --    1.16799   1.19770   1.19770   1.19959   1.22204
  Beta virt. eigenvalues --    1.22204   1.26871   1.26871   1.37527   1.37527

 Mulliken charges and spin densities:
               1          2
     1  O   -0.349614   0.706648
     2  O   -0.650386   0.293352
     3  O   -0.650386   0.293352
     4  O   -0.349614   0.706648
 Sum of Mulliken charges =  -2.00000   2.00000

 Dipole moment (field-independent basis, Debye):
    X=             -0.0000    Y=              0.0000    Z=             -0.0000  Tot=              0.0000
 Quadrupole moment (field-independent basis, Debye-Ang):
   XX=            -25.0476   YY=            -25.0476   ZZ=            -78.8840
   XY=              0.0000   XZ=              0.0000   YZ=              0.0000

 61397\PMP3-0=-300.0221818\MP4SDQ=-299.9946852\CCSD=-299.98871\CCSD(T)=
 Normal termination of Gaussian 16 at Sat Dec 31 21:21:06 2022.
