 Gaussian 16, Revision A.03,
 Gaussian 16:  ES64L-G16RevA.03 25-Dec-2016

 -------------------------------------
 #p CCSD(T)/cc-pVTZ Guess=Read SCF=XQC
 -------------------------------------

 ---------
 O2_O2_265
 ---------
 Symbolic Z-matrix:
 Charge = -2 Multiplicity = 3

                         Standard orientation:
 ---------------------------------------------------------------------
 Center     Atomic      Atomic             Coordinates (Angstroms)
 Number     Number       Type             X           Y           Z
 ---------------------------------------------------------------------
      1          8           0        0.000000    0.000000    2.668588
      2          8           0        0.000000    0.000000    4.020968
      3          8           0        0.000000    0.000000   -4.020968
      4          8           0        0.000000    0.000000   -2.668588
 ---------------------------------------------------------------------

 SCF Done:  E(UHF) =  -298.962866156     A.U. after   11 cycles
 E2 =    -0.1265688161D+01 EUMP2 =    -0.30022855431724D+03
 CCSD(T)
 CCSD(T)= -0.30014041816D+03

 The electronic state is 3-SGG.
 Alpha  occ. eigenvalues --  -20.23234 -20.23234 -20.21542 -20.21542  -1.08209
 Alpha  occ. eigenvalues --   -1.08209  -0.71851  -0.71851  -0.26738  -0.26738
 Alpha  occ. eigenvalues --   -0.26738  -0.26738  -0.21162  -0.21156  -0.05855
 Alpha  occ. eigenvalues --   -0.05855  -0.05855  -0.05855
 Alpha virt. eigenvalues --    0.70788   0.70972   1.11060   1.11334   1.12018
 Alpha virt. eigenvalues --    1.12018   1.12023   1.12023   1.16008   1.16254
 Alpha virt. eigenvalues --    1.20608   1.20608   1.20623   1.20623   1.34116

  Beta  occ. eigenvalues --  -20.19870 -20.19869 -20.18825 -20.18825  -1.00130
  Beta  occ. eigenvalues --   -1.00124  -0.60534  -0.60473  -0.18644  -0.18629
  Beta  occ. eigenvalues --   -0.12265  -0.12265  -0.12079  -0.12079   0.23352
  Beta  occ. eigenvalues --    0.23352
  Beta virt. eigenvalues --    0.31606   0.31606   0.73954   0.74171   1.12927
  Beta virt. eigenvalues --    1.13157   1.16878   1.16935   1.16935   1.16941
  Beta virt. eigenvalues --    1.16941   1.17171   1.25931   1.25931   1.25947

 Mulliken charges and spin densities:
               1          2
     1  O   -0.446819   0.569488
     2  O   -0.553181   0.430512
     3  O   -0.553181   0.430512
     4  O   -0.446819   0.569488
 Sum of Mulliken charges =  -2.00000   2.00000

 Dipole moment (field-independent basis, Debye):
    X=             -0.0000    Y=             -0.0000    Z=              0.0000  Tot=              0.0000
 Quadrupole moment (field-independent basis, Debye-Ang):
   XX=            -24.9435   YY=            -24.9435   ZZ=           -143.0588
   XY=              0.0000   XZ=              0.0000   YZ=              0.0000

 Normal termination of Gaussian 16 at Sun Jan  1 01:08:32 2023.
