 Gaussian 16, Revision A.03,
 Gaussian 16:  ES64L-G16RevA.03 25-Dec-2016

 -------------------------------------
 #p CCSD(T)/cc-pVTZ Guess=Read SCF=XQC
 -------------------------------------

 ---------
 O2_O2_132
 ---------
 Symbolic Z-matrix:
 Charge = -2 Multiplicity = 3

                         Standard orientation:
 ---------------------------------------------------------------------
 Center     Atomic      Atomic             Coordinates (Angstroms)
 Number     Number       Type             X           Y           Z
 ---------------------------------------------------------------------
      1          8           0        0.000000    0.000000    1.727042
      2          8           0        0.000000    0.000000    3.079422
      3          8           0        0.000000    0.000000   -3.079422
      4          8           0        0.000000    0.000000   -1.727042
 ---------------------------------------------------------------------

 SCF Done:  E(UHF) =  -298.953666343     A.U. after   11 cycles
 E2 =    -0.1154410872D+01 EUMP2 =    -0.30010807721551D+03
 CCSD(T)
 CCSD(T)= -0.30010091800D+03

 The electronic state is 3-SGG.
 Alpha  occ. eigenvalues --  -20.21196 -20.21196 -20.17548 -20.17548  -1.05335
 Alpha  occ. eigenvalues --   -1.05310  -0.68795  -0.68642  -0.23926  -0.23926
 Alpha  occ. eigenvalues --   -0.23855  -0.23855  -0.18335  -0.17688  -0.02791
 Alpha  occ. eigenvalues --   -0.02791  -0.02661  -0.02661
 Alpha virt. eigenvalues --    0.70945   0.77236   1.07113   1.14237   1.14237
 Alpha virt. eigenvalues --    1.15361   1.15497   1.15497   1.16677   1.22238
 Alpha virt. eigenvalues --    1.22238   1.25489   1.25489   1.36754   1.37067

  Beta  occ. eigenvalues --  -20.17459 -20.17458 -20.15172 -20.15172  -0.97133
  Beta  occ. eigenvalues --   -0.97070  -0.57592  -0.57147  -0.15854  -0.15036
  Beta  occ. eigenvalues --   -0.09524  -0.09524  -0.08937  -0.08937   0.24432
  Beta  occ. eigenvalues --    0.24432
  Beta virt. eigenvalues --    0.36973   0.36973   0.73635   0.80941   1.09418
  Beta virt. eigenvalues --    1.16477   1.17457   1.19362   1.19362   1.20193
  Beta virt. eigenvalues --    1.20193   1.27451   1.27451   1.31013   1.31013

 Mulliken charges and spin densities:
               1          2
     1  O   -0.395482   0.640592
     2  O   -0.604518   0.359408
     3  O   -0.604518   0.359408
     4  O   -0.395482   0.640592
 Sum of Mulliken charges =  -2.00000   2.00000

 Dipole moment (field-independent basis, Debye):
    X=             -0.0000    Y=              0.0000    Z=              0.0000  Tot=              0.0000
 Quadrupole moment (field-independent basis, Debye-Ang):
   XX=            -24.9819   YY=            -24.9819   ZZ=            -93.0497
   XY=              0.0000   XZ=              0.0000   YZ=              0.0000

 Normal termination of Gaussian 16 at Sat Dec 31 22:23:58 2022.
