 Gaussian 16, Revision A.03,
 Gaussian 16:  ES64L-G16RevA.03 25-Dec-2016

 -------------------------------------
 #p CCSD(T)/cc-pVTZ Guess=Read SCF=XQC
 -------------------------------------

 ---------
 O2_O2_105
 ---------
 Symbolic Z-matrix:
 Charge = -2 Multiplicity = 3

                         Standard orientation:
 ---------------------------------------------------------------------
 Center     Atomic      Atomic             Coordinates (Angstroms)
 Number     Number       Type             X           Y           Z
 ---------------------------------------------------------------------
      1          8           0        0.000000    0.000000    1.535901
      2          8           0        0.000000    0.000000    2.888281
      3          8           0        0.000000    0.000000   -2.888281
      4          8           0        0.000000    0.000000   -1.535901
 ---------------------------------------------------------------------

 SCF Done:  E(UHF) =  -298.954703415     A.U. after   11 cycles
 E2 =    -0.1126452529D+01 EUMP2 =    -0.30008115594393D+03
 CCSD(T)
 CCSD(T)= -0.30008943263D+03

 The electronic state is 3-SGG.
 Alpha  occ. eigenvalues --  -20.20876 -20.20876 -20.16251 -20.16251  -1.04632
 Alpha  occ. eigenvalues --   -1.04559  -0.68026  -0.67639  -0.23280  -0.23280
 Alpha  occ. eigenvalues --   -0.23102  -0.23102  -0.17794  -0.16453  -0.01967
 Alpha  occ. eigenvalues --   -0.01967  -0.01686  -0.01686
 Alpha virt. eigenvalues --    0.72176   0.78954   1.09393   1.14117   1.14117
 Alpha virt. eigenvalues --    1.15602   1.16726   1.16726   1.17381   1.22120
 Alpha virt. eigenvalues --    1.22120   1.28268   1.28268   1.37494   1.37876

  Beta  occ. eigenvalues --  -20.16945 -20.16943 -20.14024 -20.14024  -0.96312
  Beta  occ. eigenvalues --   -0.96182  -0.56901  -0.56029  -0.15352  -0.13699
  Beta  occ. eigenvalues --   -0.08822  -0.08822  -0.08001  -0.08001   0.24499
  Beta  occ. eigenvalues --    0.24499
  Beta virt. eigenvalues --    0.38896   0.38896   0.75019   0.82761   1.11538
  Beta virt. eigenvalues --    1.16698   1.18209   1.19630   1.19630   1.21224
  Beta virt. eigenvalues --    1.21224   1.27070   1.27070   1.33978   1.33978

 Mulliken charges and spin densities:
               1          2
     1  O   -0.374591   0.671009
     2  O   -0.625409   0.328991
     3  O   -0.625409   0.328991
     4  O   -0.374591   0.671009
 Sum of Mulliken charges =  -2.00000   2.00000

 Dipole moment (field-independent basis, Debye):
    X=             -0.0000    Y=             -0.0000    Z=             -0.0000  Tot=              0.0000
 Quadrupole moment (field-independent basis, Debye-Ang):
   XX=            -25.0107   YY=            -25.0107   ZZ=            -85.1895
   XY=              0.0000   XZ=              0.0000   YZ=              0.0000

 Normal termination of Gaussian 16 at Sat Dec 31 21:50:20 2022.
