 Gaussian 16, Revision A.03,
 Gaussian 16:  ES64L-G16RevA.03 25-Dec-2016

 -------------------------------------
 #p CCSD(T)/cc-pVTZ Guess=Read SCF=XQC
 -------------------------------------

 --------
 O2_O2_17
 --------
 Symbolic Z-matrix:
 Charge = -2 Multiplicity = 3

                         Standard orientation:
 ---------------------------------------------------------------------
 Center     Atomic      Atomic             Coordinates (Angstroms)
 Number     Number       Type             X           Y           Z
 ---------------------------------------------------------------------
      1          8           0        0.000000    0.000000    0.912923
      2          8           0        0.000000    0.000000    2.265304
      3          8           0        0.000000    0.000000   -2.265304
      4          8           0        0.000000    0.000000   -0.912923
 ---------------------------------------------------------------------

 SCF Done:  E(UHF) =  -298.954951458     A.U. after   12 cycles
 E2 =    -0.1027608498D+01 EUMP2 =    -0.29998255995564D+03
 CCSD(T)
 CCSD(T)= -0.30002126480D+03

 The electronic state is 3-SGG.
 Alpha  occ. eigenvalues --  -20.19647 -20.19646 -20.09070 -20.09070  -1.03464
 Alpha  occ. eigenvalues --   -1.00547  -0.67923  -0.60180  -0.22659  -0.22659
 Alpha  occ. eigenvalues --   -0.19632  -0.18951  -0.18951  -0.05113   0.01646
 Alpha  occ. eigenvalues --    0.01646   0.04238   0.04238
 Alpha virt. eigenvalues --    0.78255   0.86946   1.15817   1.15817   1.16998
 Alpha virt. eigenvalues --    1.18330   1.21824   1.21824   1.26185   1.26185
 Alpha virt. eigenvalues --    1.38598   1.38812   1.41091   1.41091   1.48694

  Beta  occ. eigenvalues --  -20.14674 -20.14664 -20.07693 -20.07693  -0.93756
  Beta  occ. eigenvalues --   -0.91437  -0.59329  -0.47773  -0.16996  -0.06861
  Beta  occ. eigenvalues --   -0.06861  -0.03228  -0.03228  -0.01365   0.21527
  Beta  occ. eigenvalues --    0.21527
  Beta virt. eigenvalues --    0.51220   0.51220   0.82255   0.90779   1.18504
  Beta virt. eigenvalues --    1.18726   1.22994   1.22994   1.25253   1.25253
  Beta virt. eigenvalues --    1.30593   1.30593   1.38988   1.39670   1.47300

 Mulliken charges and spin densities:
               1          2
     1  O   -0.228003   0.834595
     2  O   -0.771997   0.165405
     3  O   -0.771997   0.165405
     4  O   -0.228003   0.834595
 Sum of Mulliken charges =  -2.00000   2.00000

 Dipole moment (field-independent basis, Debye):
    X=             -0.0000    Y=              0.0000    Z=              0.0000  Tot=              0.0000
 Quadrupole moment (field-independent basis, Debye-Ang):
   XX=            -25.0995   YY=            -25.0995   ZZ=            -66.1035
   XY=              0.0000   XZ=              0.0000   YZ=              0.0000

 Normal termination of Gaussian 16 at Sat Dec 31 20:05:27 2022.
