 Gaussian 16, Revision A.03,
 Gaussian 16:  ES64L-G16RevA.03 25-Dec-2016

 -------------------------------------
 #p CCSD(T)/cc-pVTZ Guess=Read SCF=XQC
 -------------------------------------

 ---------
 O2_O2_136
 ---------
 Symbolic Z-matrix:
 Charge = -2 Multiplicity = 3

                         Standard orientation:
 ---------------------------------------------------------------------
 Center     Atomic      Atomic             Coordinates (Angstroms)
 Number     Number       Type             X           Y           Z
 ---------------------------------------------------------------------
      1          8           0        0.000000    0.000000    1.755359
      2          8           0        0.000000    0.000000    3.107739
      3          8           0        0.000000    0.000000   -3.107739
      4          8           0        0.000000    0.000000   -1.755359
 ---------------------------------------------------------------------

 SCF Done:  E(UHF) =  -298.953702264     A.U. after   11 cycles
 E2 =    -0.1158302040D+01 EUMP2 =    -0.30011200430373D+03
 CCSD(T)
 CCSD(T)= -0.30010250038D+03

 The electronic state is 3-SGG.
 Alpha  occ. eigenvalues --  -20.21251 -20.21251 -20.17719 -20.17719  -1.05437
 Alpha  occ. eigenvalues --   -1.05416  -0.68907  -0.68774  -0.24024  -0.24024
 Alpha  occ. eigenvalues --   -0.23962  -0.23962  -0.18424  -0.17844  -0.02906
 Alpha  occ. eigenvalues --   -0.02906  -0.02791  -0.02791
 Alpha virt. eigenvalues --    0.70869   0.76979   1.07109   1.14214   1.14214
 Alpha virt. eigenvalues --    1.15303   1.15332   1.15332   1.16597   1.22254
 Alpha virt. eigenvalues --    1.22254   1.25167   1.25167   1.36451   1.36953

  Beta  occ. eigenvalues --  -20.17537 -20.17536 -20.15325 -20.15325  -0.97248
  Beta  occ. eigenvalues --   -0.97191  -0.57697  -0.57292  -0.15939  -0.15204
  Beta  occ. eigenvalues --   -0.09624  -0.09624  -0.09064  -0.09064   0.24410
  Beta  occ. eigenvalues --    0.24410
  Beta virt. eigenvalues --    0.36728   0.36728   0.73560   0.80666   1.09417
  Beta virt. eigenvalues --    1.16425   1.17373   1.19305   1.19305   1.20050
  Beta virt. eigenvalues --    1.20050   1.27489   1.27489   1.30670   1.30670

 Mulliken charges and spin densities:
               1          2
     1  O   -0.398082   0.636814
     2  O   -0.601918   0.363186
     3  O   -0.601918   0.363186
     4  O   -0.398082   0.636814
 Sum of Mulliken charges =  -2.00000   2.00000

 Dipole moment (field-independent basis, Debye):
    X=             -0.0000    Y=              0.0000    Z=              0.0000  Tot=              0.0000
 Quadrupole moment (field-independent basis, Debye-Ang):
   XX=            -24.9787   YY=            -24.9787   ZZ=            -94.2822
   XY=              0.0000   XZ=              0.0000   YZ=              0.0000

 Normal termination of Gaussian 16 at Sat Dec 31 22:29:06 2022.
