 Gaussian 16, Revision A.03,
 Gaussian 16:  ES64L-G16RevA.03 25-Dec-2016

 -------------------------------------
 #p CCSD(T)/cc-pVTZ Guess=Read SCF=XQC
 -------------------------------------

 --------
 O2_O2_59
 --------
 Symbolic Z-matrix:
 Charge = -2 Multiplicity = 3

                         Standard orientation:
 ---------------------------------------------------------------------
 Center     Atomic      Atomic             Coordinates (Angstroms)
 Number     Number       Type             X           Y           Z
 ---------------------------------------------------------------------
      1          8           0        0.000000    0.000000    1.210253
      2          8           0        0.000000    0.000000    2.562634
      3          8           0        0.000000    0.000000   -2.562634
      4          8           0        0.000000    0.000000   -1.210253
 ---------------------------------------------------------------------

 SCF Done:  E(UHF) =  -298.963347016     A.U. after   12 cycles
 E2 =    -0.1072210267D+01 EUMP2 =    -0.30003555728357D+03
 CCSD(T)
 CCSD(T)= -0.30006600238D+03

 The electronic state is 3-SGG.
 Alpha  occ. eigenvalues --  -20.20485 -20.20485 -20.13281 -20.13281  -1.03515
 Alpha  occ. eigenvalues --   -1.03032  -0.66921  -0.65074  -0.22386  -0.22386
 Alpha  occ. eigenvalues --   -0.21543  -0.21543  -0.17558  -0.12973  -0.00315
 Alpha  occ. eigenvalues --   -0.00315   0.00599   0.00599
 Alpha virt. eigenvalues --    0.75645   0.82171   1.13528   1.13528   1.15919
 Alpha virt. eigenvalues --    1.17927   1.19146   1.19146   1.22986   1.22986
 Alpha virt. eigenvalues --    1.25765   1.35067   1.35067   1.38455   1.39416

  Beta  occ. eigenvalues --  -20.16043 -20.16039 -20.11435 -20.11435  -0.94758
  Beta  occ. eigenvalues --   -0.94236  -0.56296  -0.53100  -0.15239  -0.09892
  Beta  occ. eigenvalues --   -0.07598  -0.07598  -0.05983  -0.05983   0.23946
  Beta  occ. eigenvalues --    0.23946
  Beta virt. eigenvalues --    0.43771   0.43771   0.79144   0.86077   1.17078
  Beta virt. eigenvalues --    1.18346   1.20212   1.20212   1.23138   1.23138
  Beta virt. eigenvalues --    1.27226   1.27226   1.27911   1.38816   1.39927

 Mulliken charges and spin densities:
               1          2
     1  O   -0.319170   0.747090
     2  O   -0.680830   0.252910
     3  O   -0.680830   0.252910
     4  O   -0.319170   0.747090
 Sum of Mulliken charges =  -2.00000   2.00000

 Dipole moment (field-independent basis, Debye):
    X=             -0.0000    Y=              0.0000    Z=              0.0000  Tot=              0.0000
 Quadrupole moment (field-independent basis, Debye-Ang):
   XX=            -25.0877   YY=            -25.0877   ZZ=            -73.7112
   XY=              0.0000   XZ=              0.0000   YZ=              0.0000

 Normal termination of Gaussian 16 at Sat Dec 31 20:55:10 2022.
