 Gaussian 16, Revision A.03,
 Gaussian 16:  ES64L-G16RevA.03 25-Dec-2016

 -------------------------------------
 #p CCSD(T)/cc-pVTZ Guess=Read SCF=XQC
 -------------------------------------

 --------
 O2_O2_43
 --------
 Symbolic Z-matrix:
 Charge = -2 Multiplicity = 3

                         Standard orientation:
 ---------------------------------------------------------------------
 Center     Atomic      Atomic             Coordinates (Angstroms)
 Number     Number       Type             X           Y           Z
 ---------------------------------------------------------------------
      1          8           0        0.000000    0.000000    1.096985
      2          8           0        0.000000    0.000000    2.449365
      3          8           0        0.000000    0.000000   -2.449365
      4          8           0        0.000000    0.000000   -1.096985
 ---------------------------------------------------------------------

 SCF Done:  E(UHF) =  -298.966486856     A.U. after   12 cycles
 E2 =    -0.1052983025D+01 EUMP2 =    -0.30001946988078D+03
 CCSD(T)
 CCSD(T)= -0.30005497715D+03

 The electronic state is 3-SGG.
 Alpha  occ. eigenvalues --  -20.20280 -20.20279 -20.11916 -20.11916  -1.03245
 Alpha  occ. eigenvalues --   -1.02301  -0.66839  -0.63656  -0.22243  -0.22243
 Alpha  occ. eigenvalues --   -0.20782  -0.20782  -0.17957  -0.10873   0.00370
 Alpha  occ. eigenvalues --    0.00370   0.01729   0.01729
 Alpha virt. eigenvalues --    0.76728   0.83611   1.13973   1.13973   1.16237
 Alpha virt. eigenvalues --    1.18211   1.20079   1.20079   1.23862   1.23862
 Alpha virt. eigenvalues --    1.33955   1.37537   1.37537   1.38687   1.40295

  Beta  occ. eigenvalues --  -20.15624 -20.15618 -20.10241 -20.10241  -0.94227
  Beta  occ. eigenvalues --   -0.93336  -0.56686  -0.51509  -0.15643  -0.07604
  Beta  occ. eigenvalues --   -0.07212  -0.07212  -0.05087  -0.05087   0.23353
  Beta  occ. eigenvalues --    0.23353
  Beta virt. eigenvalues --    0.46184   0.46184   0.80447   0.87527   1.17491
  Beta virt. eigenvalues --    1.18583   1.21021   1.21021   1.23862   1.23862
  Beta virt. eigenvalues --    1.28000   1.28000   1.36009   1.39007   1.40672

 Mulliken charges and spin densities:
               1          2
     1  O   -0.290397   0.780325
     2  O   -0.709603   0.219675
     3  O   -0.709603   0.219675
     4  O   -0.290397   0.780325
 Sum of Mulliken charges =  -2.00000   2.00000

 Dipole moment (field-independent basis, Debye):
    X=             -0.0000    Y=              0.0000    Z=             -0.0000  Tot=              0.0000
 Quadrupole moment (field-independent basis, Debye-Ang):
   XX=            -25.1126   YY=            -25.1126   ZZ=            -70.3878
   XY=              0.0000   XZ=              0.0000   YZ=              0.0000

 Normal termination of Gaussian 16 at Sat Dec 31 20:36:04 2022.
