 Gaussian 16, Revision A.03,
 Gaussian 16:  ES64L-G16RevA.03 25-Dec-2016

 -------------------------------------
 #p CCSD(T)/cc-pVTZ Guess=Read SCF=XQC
 -------------------------------------

 ---------
 O2_O2_151
 ---------
 Symbolic Z-matrix:
 Charge = -2 Multiplicity = 3

                         Standard orientation:
 ---------------------------------------------------------------------
 Center     Atomic      Atomic             Coordinates (Angstroms)
 Number     Number       Type             X           Y           Z
 ---------------------------------------------------------------------
      1          8           0        0.000000    0.000000    1.861548
      2          8           0        0.000000    0.000000    3.213929
      3          8           0        0.000000    0.000000   -3.213929
      4          8           0        0.000000    0.000000   -1.861548
 ---------------------------------------------------------------------

 SCF Done:  E(UHF) =  -298.954143356     A.U. after   11 cycles
 E2 =    -0.1172401672D+01 EUMP2 =    -0.30012654502742D+03
 CCSD(T)
 CCSD(T)= -0.30010816941D+03

 The electronic state is 3-SGG.
 Alpha  occ. eigenvalues --  -20.21470 -20.21470 -20.18322 -20.18322  -1.05817
 Alpha  occ. eigenvalues --   -1.05806  -0.69320  -0.69241  -0.24386  -0.24386
 Alpha  occ. eigenvalues --   -0.24350  -0.24350  -0.18768  -0.18386  -0.03326
 Alpha  occ. eigenvalues --   -0.03326  -0.03253  -0.03253
 Alpha virt. eigenvalues --    0.70797   0.76015   1.07636   1.14063   1.14063
 Alpha virt. eigenvalues --    1.14758   1.14758   1.15028   1.16360   1.22264
 Alpha virt. eigenvalues --    1.22264   1.24131   1.24131   1.31276   1.36472

  Beta  occ. eigenvalues --  -20.17831 -20.17830 -20.15867 -20.15866  -0.97665
  Beta  occ. eigenvalues --   -0.97625  -0.58088  -0.57795  -0.16271  -0.15781
  Beta  occ. eigenvalues --   -0.09992  -0.09992  -0.09517  -0.09517   0.24312
  Beta  occ. eigenvalues --    0.24312
  Beta virt. eigenvalues --    0.35879   0.35879   0.73531   0.79624   1.09920
  Beta virt. eigenvalues --    1.16187   1.17118   1.19062   1.19062   1.19542
  Beta virt. eigenvalues --    1.19542   1.27555   1.27555   1.29571   1.29571

 Mulliken charges and spin densities:
               1          2
     1  O   -0.406927   0.624035
     2  O   -0.593073   0.375965
     3  O   -0.593073   0.375965
     4  O   -0.406927   0.624035
 Sum of Mulliken charges =  -2.00000   2.00000

 Dipole moment (field-independent basis, Debye):
    X=             -0.0000    Y=              0.0000    Z=              0.0000  Tot=              0.0000
 Quadrupole moment (field-independent basis, Debye-Ang):
   XX=            -24.9686   YY=            -24.9686   ZZ=            -99.0595
   XY=              0.0000   XZ=              0.0000   YZ=              0.0000

 Normal termination of Gaussian 16 at Sat Dec 31 22:47:58 2022.
