 Gaussian 16, Revision A.03,
 Gaussian 16:  ES64L-G16RevA.03 25-Dec-2016

 -------------------------------------
 #p CCSD(T)/cc-pVTZ Guess=Read SCF=XQC
 -------------------------------------

 ---------
 O2_O2_197
 ---------
 Symbolic Z-matrix:
 Charge = -2 Multiplicity = 3

                         Standard orientation:
 ---------------------------------------------------------------------
 Center     Atomic      Atomic             Coordinates (Angstroms)
 Number     Number       Type             X           Y           Z
 ---------------------------------------------------------------------
      1          8           0        0.000000    0.000000    2.187196
      2          8           0        0.000000    0.000000    3.539576
      3          8           0        0.000000    0.000000   -3.539576
      4          8           0        0.000000    0.000000   -2.187196
 ---------------------------------------------------------------------

 SCF Done:  E(UHF) =  -298.957255879     A.U. after   11 cycles
 E2 =    -0.1212061140D+01 EUMP2 =    -0.30016931701849D+03
 CCSD(T)
 CCSD(T)= -0.30012322334D+03

 The electronic state is 3-SGG.
 Alpha  occ. eigenvalues --  -20.22209 -20.22209 -20.19861 -20.19861  -1.06899
 Alpha  occ. eigenvalues --   -1.06897  -0.70477  -0.70462  -0.25441  -0.25441
 Alpha  occ. eigenvalues --   -0.25435  -0.25435  -0.19820  -0.19726  -0.04484
 Alpha  occ. eigenvalues --   -0.04484  -0.04470  -0.04470
 Alpha virt. eigenvalues --    0.71272   0.73315   1.10649   1.13263   1.13263
 Alpha virt. eigenvalues --    1.13388   1.13388   1.13651   1.16282   1.20418
 Alpha virt. eigenvalues --    1.21797   1.21797   1.22151   1.22151   1.35401

  Beta  occ. eigenvalues --  -20.18722 -20.18722 -20.17268 -20.17267  -0.98800
  Beta  occ. eigenvalues --   -0.98784  -0.59199  -0.59070  -0.17306  -0.17177
  Beta  occ. eigenvalues --   -0.11021  -0.11021  -0.10714  -0.10714   0.23926
  Beta  occ. eigenvalues --    0.23926
  Beta virt. eigenvalues --    0.33801   0.33801   0.74282   0.76676   1.12733
  Beta virt. eigenvalues --    1.15083   1.17024   1.18175   1.18175   1.18271
  Beta virt. eigenvalues --    1.18271   1.21609   1.27129   1.27129   1.27502

 Mulliken charges and spin densities:
               1          2
     1  O   -0.427360   0.595283
     2  O   -0.572640   0.404717
     3  O   -0.572640   0.404717
     4  O   -0.427360   0.595283
 Sum of Mulliken charges =  -2.00000   2.00000

 Dipole moment (field-independent basis, Debye):
    X=             -0.0000    Y=              0.0000    Z=             -0.0000  Tot=              0.0000
 Quadrupole moment (field-independent basis, Debye-Ang):
   XX=            -24.9517   YY=            -24.9517   ZZ=           -115.2052
   XY=              0.0000   XZ=              0.0000   YZ=              0.0000

 Normal termination of Gaussian 16 at Sat Dec 31 23:44:54 2022.
