 Gaussian 16, Revision A.03,
 Gaussian 16:  ES64L-G16RevA.03 25-Dec-2016

 -------------------------------------
 #p CCSD(T)/cc-pVTZ Guess=Read SCF=XQC
 -------------------------------------

 ---------
 O2_O2_192
 ---------
 Symbolic Z-matrix:
 Charge = -2 Multiplicity = 3

                         Standard orientation:
 ---------------------------------------------------------------------
 Center     Atomic      Atomic             Coordinates (Angstroms)
 Number     Number       Type             X           Y           Z
 ---------------------------------------------------------------------
      1          8           0        0.000000    0.000000    2.151800
      2          8           0        0.000000    0.000000    3.504180
      3          8           0        0.000000    0.000000   -3.504180
      4          8           0        0.000000    0.000000   -2.151800
 ---------------------------------------------------------------------

 SCF Done:  E(UHF) =  -298.956848846     A.U. after   11 cycles
 E2 =    -0.1207942408D+01 EUMP2 =    -0.30016479125391D+03
 CCSD(T)
 CCSD(T)= -0.30012173947D+03

 The electronic state is 3-SGG.
 Alpha  occ. eigenvalues --  -20.22127 -20.22127 -20.19712 -20.19712  -1.06789
 Alpha  occ. eigenvalues --   -1.06787  -0.70360  -0.70342  -0.25333  -0.25333
 Alpha  occ. eigenvalues --   -0.25325  -0.25325  -0.19710  -0.19599  -0.04367
 Alpha  occ. eigenvalues --   -0.04367  -0.04350  -0.04350
 Alpha virt. eigenvalues --    0.71240   0.73571   1.10418   1.13360   1.13360
 Alpha virt. eigenvalues --    1.13514   1.13514   1.13839   1.16255   1.21132
 Alpha virt. eigenvalues --    1.21875   1.21875   1.22307   1.22307   1.35509

  Beta  occ. eigenvalues --  -20.18628 -20.18628 -20.17131 -20.17131  -0.98686
  Beta  occ. eigenvalues --   -0.98669  -0.59086  -0.58947  -0.17196  -0.17046
  Beta  occ. eigenvalues --   -0.10917  -0.10917  -0.10596  -0.10596   0.23970
  Beta  occ. eigenvalues --    0.23970
  Beta virt. eigenvalues --    0.33997   0.33997   0.74224   0.76955   1.12528
  Beta virt. eigenvalues --    1.15228   1.16989   1.18274   1.18274   1.18390
  Beta virt. eigenvalues --    1.18390   1.22348   1.27206   1.27206   1.27664

 Mulliken charges and spin densities:
               1          2
     1  O   -0.425512   0.597815
     2  O   -0.574488   0.402185
     3  O   -0.574488   0.402185
     4  O   -0.425512   0.597815
 Sum of Mulliken charges =  -2.00000   2.00000

 Dipole moment (field-independent basis, Debye):
    X=             -0.0000    Y=              0.0000    Z=             -0.0000  Tot=              0.0000
 Quadrupole moment (field-independent basis, Debye-Ang):
   XX=            -24.9528   YY=            -24.9528   ZZ=           -113.3434
   XY=              0.0000   XZ=              0.0000   YZ=              0.0000

 Normal termination of Gaussian 16 at Sat Dec 31 23:38:32 2022.
