 Gaussian 16, Revision A.03,
 Gaussian 16:  ES64L-G16RevA.03 25-Dec-2016

 -------------------------------------
 #p CCSD(T)/cc-pVTZ Guess=Read SCF=XQC
 -------------------------------------

 ---------
 O2_O2_189
 ---------
 Symbolic Z-matrix:
 Charge = -2 Multiplicity = 3

                         Standard orientation:
 ---------------------------------------------------------------------
 Center     Atomic      Atomic             Coordinates (Angstroms)
 Number     Number       Type             X           Y           Z
 ---------------------------------------------------------------------
      1          8           0        0.000000    0.000000    2.130562
      2          8           0        0.000000    0.000000    3.482942
      3          8           0        0.000000    0.000000   -3.482942
      4          8           0        0.000000    0.000000   -2.130562
 ---------------------------------------------------------------------

 SCF Done:  E(UHF) =  -298.956608986     A.U. after   11 cycles
 E2 =    -0.1205453316D+01 EUMP2 =    -0.30016206230294D+03
 CCSD(T)
 CCSD(T)= -0.30012083263D+03

 The electronic state is 3-SGG.
 Alpha  occ. eigenvalues --  -20.22078 -20.22078 -20.19621 -20.19621  -1.06721
 Alpha  occ. eigenvalues --   -1.06719  -0.70289  -0.70269  -0.25267  -0.25267
 Alpha  occ. eigenvalues --   -0.25258  -0.25258  -0.19643  -0.19520  -0.04296
 Alpha  occ. eigenvalues --   -0.04296  -0.04277  -0.04277
 Alpha virt. eigenvalues --    0.71215   0.73730   1.10259   1.13417   1.13417
 Alpha virt. eigenvalues --    1.13591   1.13591   1.13947   1.16240   1.21606
 Alpha virt. eigenvalues --    1.21920   1.21920   1.22407   1.22407   1.35574

  Beta  occ. eigenvalues --  -20.18572 -20.18571 -20.17048 -20.17048  -0.98617
  Beta  occ. eigenvalues --   -0.98598  -0.59017  -0.58872  -0.17130  -0.16966
  Beta  occ. eigenvalues --   -0.10853  -0.10853  -0.10524  -0.10524   0.23997
  Beta  occ. eigenvalues --    0.23997
  Beta virt. eigenvalues --    0.34117   0.34117   0.74182   0.77129   1.12386
  Beta virt. eigenvalues --    1.15313   1.16970   1.18334   1.18334   1.18464
  Beta virt. eigenvalues --    1.18464   1.22836   1.27251   1.27251   1.27766

 Mulliken charges and spin densities:
               1          2
     1  O   -0.424367   0.599393
     2  O   -0.575633   0.400607
     3  O   -0.575633   0.400607
     4  O   -0.424367   0.599393
 Sum of Mulliken charges =  -2.00000   2.00000

 Dipole moment (field-independent basis, Debye):
    X=             -0.0000    Y=              0.0000    Z=              0.0000  Tot=              0.0000
 Quadrupole moment (field-independent basis, Debye-Ang):
   XX=            -24.9536   YY=            -24.9536   ZZ=           -112.2386
   XY=              0.0000   XZ=              0.0000   YZ=              0.0000

 Normal termination of Gaussian 16 at Sat Dec 31 23:34:45 2022.
