 Gaussian 16, Revision A.03,
 Gaussian 16:  ES64L-G16RevA.03 25-Dec-2016

 -------------------------------------
 #p CCSD(T)/cc-pVTZ Guess=Read SCF=XQC
 -------------------------------------

 ---------
 O2_O2_186
 ---------
 Symbolic Z-matrix:
 Charge = -2 Multiplicity = 3

                         Standard orientation:
 ---------------------------------------------------------------------
 Center     Atomic      Atomic             Coordinates (Angstroms)
 Number     Number       Type             X           Y           Z
 ---------------------------------------------------------------------
      1          8           0        0.000000    0.000000    2.109323
      2          8           0        0.000000    0.000000    3.461704
      3          8           0        0.000000    0.000000   -3.461704
      4          8           0        0.000000    0.000000   -2.109323
 ---------------------------------------------------------------------

 SCF Done:  E(UHF) =  -298.956373070     A.U. after   11 cycles
 E2 =    -0.1202949951D+01 EUMP2 =    -0.30015932302111D+03
 CCSD(T)
 CCSD(T)= -0.30011991314D+03

 The electronic state is 3-SGG.
 Alpha  occ. eigenvalues --  -20.22029 -20.22029 -20.19529 -20.19529  -1.06654
 Alpha  occ. eigenvalues --   -1.06651  -0.70217  -0.70195  -0.25200  -0.25200
 Alpha  occ. eigenvalues --   -0.25190  -0.25190  -0.19575  -0.19441  -0.04224
 Alpha  occ. eigenvalues --   -0.04224  -0.04203  -0.04203
 Alpha virt. eigenvalues --    0.71187   0.73893   1.10086   1.13475   1.13475
 Alpha virt. eigenvalues --    1.13670   1.13670   1.14053   1.16228   1.21962
 Alpha virt. eigenvalues --    1.21962   1.22118   1.22510   1.22510   1.35640

  Beta  occ. eigenvalues --  -20.18514 -20.18514 -20.16963 -20.16963  -0.98547
  Beta  occ. eigenvalues --   -0.98527  -0.58948  -0.58795  -0.17063  -0.16884
  Beta  occ. eigenvalues --   -0.10789  -0.10789  -0.10451  -0.10451   0.24023
  Beta  occ. eigenvalues --    0.24023
  Beta virt. eigenvalues --    0.34240   0.34240   0.74136   0.77307   1.12228
  Beta virt. eigenvalues --    1.15395   1.16955   1.18393   1.18393   1.18539
  Beta virt. eigenvalues --    1.18539   1.23360   1.27293   1.27293   1.27873

 Mulliken charges and spin densities:
               1          2
     1  O   -0.423194   0.601016
     2  O   -0.576806   0.398984
     3  O   -0.576806   0.398984
     4  O   -0.423194   0.601016
 Sum of Mulliken charges =  -2.00000   2.00000

 Dipole moment (field-independent basis, Debye):
    X=             -0.0000    Y=              0.0000    Z=             -0.0000  Tot=              0.0000
 Quadrupole moment (field-independent basis, Debye-Ang):
   XX=            -24.9543   YY=            -24.9543   ZZ=           -111.1431
   XY=              0.0000   XZ=              0.0000   YZ=              0.0000

 Normal termination of Gaussian 16 at Sat Dec 31 23:30:57 2022.
