 Gaussian 16, Revision A.03,
 Gaussian 16:  ES64L-G16RevA.03 25-Dec-2016

 -------------------------------------
 #p CCSD(T)/cc-pVTZ Guess=Read SCF=XQC
 -------------------------------------

 ---------
 O2_O2_225
 ---------
 Symbolic Z-matrix:
 Charge = -2 Multiplicity = 3

                         Standard orientation:
 ---------------------------------------------------------------------
 Center     Atomic      Atomic             Coordinates (Angstroms)
 Number     Number       Type             X           Y           Z
 ---------------------------------------------------------------------
      1          8           0        0.000000    0.000000    2.385416
      2          8           0        0.000000    0.000000    3.737796
      3          8           0        0.000000    0.000000   -3.737796
      4          8           0        0.000000    0.000000   -2.385416
 ---------------------------------------------------------------------

 SCF Done:  E(UHF) =  -298.959611560     A.U. after   11 cycles
 E2 =    -0.1234571027D+01 EUMP2 =    -0.30019418258679D+03
 CCSD(T)
 CCSD(T)= -0.30013093645D+03

 The electronic state is 3-SGG.
 Alpha  occ. eigenvalues --  -20.22654 -20.22654 -20.20623 -20.20623  -1.07481
 Alpha  occ. eigenvalues --   -1.07481  -0.71091  -0.71086  -0.26016  -0.26016
 Alpha  occ. eigenvalues --   -0.26014  -0.26014  -0.20411  -0.20377  -0.05096
 Alpha  occ. eigenvalues --   -0.05096  -0.05092  -0.05092
 Alpha virt. eigenvalues --    0.71245   0.72111   1.11272   1.12559   1.12725
 Alpha virt. eigenvalues --    1.12725   1.12762   1.12762   1.16364   1.17825
 Alpha virt. eigenvalues --    1.21312   1.21312   1.21417   1.21417   1.34832

  Beta  occ. eigenvalues --  -20.19226 -20.19226 -20.17971 -20.17971  -0.99394
  Beta  occ. eigenvalues --   -0.99383  -0.59793  -0.59704  -0.17894  -0.17841
  Beta  occ. eigenvalues --   -0.11572  -0.11572  -0.11326  -0.11326   0.23679
  Beta  occ. eigenvalues --    0.23679
  Beta virt. eigenvalues --    0.32801   0.32801   0.74357   0.75372   1.13216
  Beta virt. eigenvalues --    1.14218   1.17181   1.17635   1.17635   1.17665
  Beta virt. eigenvalues --    1.17665   1.18859   1.26641   1.26641   1.26752

 Mulliken charges and spin densities:
               1          2
     1  O   -0.436503   0.582993
     2  O   -0.563497   0.417007
     3  O   -0.563497   0.417007
     4  O   -0.436503   0.582993
 Sum of Mulliken charges =  -2.00000   2.00000

 Dipole moment (field-independent basis, Debye):
    X=             -0.0000    Y=             -0.0000    Z=              0.0000  Tot=              0.0000
 Quadrupole moment (field-independent basis, Debye-Ang):
   XX=            -24.9471   YY=            -24.9471   ZZ=           -126.1049
   XY=              0.0000   XZ=              0.0000   YZ=              0.0000

 Normal termination of Gaussian 16 at Sun Jan  1 00:19:23 2023.
