 Gaussian 16, Revision A.03,
 Gaussian 16:  ES64L-G16RevA.03 25-Dec-2016

 -------------------------------------
 #p CCSD(T)/cc-pVTZ Guess=Read SCF=XQC
 -------------------------------------

 ---------
 O2_O2_271
 ---------
 Symbolic Z-matrix:
 Charge = -2 Multiplicity = 3

                         Standard orientation:
 ---------------------------------------------------------------------
 Center     Atomic      Atomic             Coordinates (Angstroms)
 Number     Number       Type             X           Y           Z
 ---------------------------------------------------------------------
      1          8           0        0.000000    0.000000    2.711063
      2          8           0        0.000000    0.000000    4.063444
      3          8           0        0.000000    0.000000   -4.063444
      4          8           0        0.000000    0.000000   -2.711063
 ---------------------------------------------------------------------

 SCF Done:  E(UHF) =  -298.963325890     A.U. after   11 cycles
 E2 =    -0.1270292528D+01 EUMP2 =    -0.30023361841818D+03
 CCSD(T)
 CCSD(T)= -0.30014170521D+03

 The electronic state is 3-SGG.
 Alpha  occ. eigenvalues --  -20.23315 -20.23315 -20.21665 -20.21665  -1.08308
 Alpha  occ. eigenvalues --   -1.08308  -0.71955  -0.71954  -0.26837  -0.26837
 Alpha  occ. eigenvalues --   -0.26837  -0.26837  -0.21265  -0.21260  -0.05959
 Alpha  occ. eigenvalues --   -0.05959  -0.05958  -0.05958
 Alpha virt. eigenvalues --    0.70700   0.70841   1.10984   1.11195   1.11920
 Alpha virt. eigenvalues --    1.11920   1.11924   1.11924   1.15922   1.16105
 Alpha virt. eigenvalues --    1.20508   1.20508   1.20519   1.20519   1.34018

  Beta  occ. eigenvalues --  -20.19958 -20.19958 -20.18940 -20.18940  -1.00231
  Beta  occ. eigenvalues --   -1.00225  -0.60635  -0.60577  -0.18747  -0.18734
  Beta  occ. eigenvalues --   -0.12360  -0.12360  -0.12181  -0.12181   0.23306
  Beta  occ. eigenvalues --    0.23306
  Beta virt. eigenvalues --    0.31445   0.31445   0.73869   0.74036   1.12850
  Beta virt. eigenvalues --    1.13030   1.16794   1.16838   1.16838   1.16843
  Beta virt. eigenvalues --    1.16843   1.17014   1.25830   1.25830   1.25842

 Mulliken charges and spin densities:
               1          2
     1  O   -0.448147   0.567763
     2  O   -0.551853   0.432237
     3  O   -0.551853   0.432237
     4  O   -0.448147   0.567763
 Sum of Mulliken charges =  -2.00000   2.00000

 Dipole moment (field-independent basis, Debye):
    X=             -0.0000    Y=             -0.0000    Z=              0.0000  Tot=              0.0000
 Quadrupole moment (field-independent basis, Debye-Ang):
   XX=            -24.9431   YY=            -24.9431   ZZ=           -145.7414
   XY=              0.0000   XZ=              0.0000   YZ=              0.0000

 Normal termination of Gaussian 16 at Sun Jan  1 01:15:45 2023.
