 Gaussian 16, Revision A.03,
 Gaussian 16:  ES64L-G16RevA.03 25-Dec-2016

 -------------------------------------
 #p CCSD(T)/cc-pVTZ Guess=Read SCF=XQC
 -------------------------------------

 ---------
 O2_O2_282
 ---------
 Symbolic Z-matrix:
 Charge = -2 Multiplicity = 3

                         Standard orientation:
 ---------------------------------------------------------------------
 Center     Atomic      Atomic             Coordinates (Angstroms)
 Number     Number       Type             X           Y           Z
 ---------------------------------------------------------------------
      1          8           0        0.000000    0.000000    2.788936
      2          8           0        0.000000    0.000000    4.141316
      3          8           0        0.000000    0.000000   -4.141316
      4          8           0        0.000000    0.000000   -2.788936
 ---------------------------------------------------------------------

 SCF Done:  E(UHF) =  -298.964146656     A.U. after   11 cycles
 E2 =    -0.1278704304D+01 EUMP2 =    -0.30024285096011D+03
 CCSD(T)
 CCSD(T)= -0.30014398478D+03

 The electronic state is 3-SGG.
 Alpha  occ. eigenvalues --  -20.23459 -20.23459 -20.21883 -20.21883  -1.08485
 Alpha  occ. eigenvalues --   -1.08485  -0.72138  -0.72138  -0.27012  -0.27012
 Alpha  occ. eigenvalues --   -0.27012  -0.27012  -0.21448  -0.21445  -0.06141
 Alpha  occ. eigenvalues --   -0.06141  -0.06141  -0.06141
 Alpha virt. eigenvalues --    0.70535   0.70621   1.10836   1.10963   1.11746
 Alpha virt. eigenvalues --    1.11746   1.11748   1.11748   1.15756   1.15861
 Alpha virt. eigenvalues --    1.20331   1.20331   1.20336   1.20336   1.33845

  Beta  occ. eigenvalues --  -20.20116 -20.20115 -20.19144 -20.19144  -1.00408
  Beta  occ. eigenvalues --   -1.00403  -0.60814  -0.60761  -0.18930  -0.18920
  Beta  occ. eigenvalues --   -0.12528  -0.12528  -0.12362  -0.12362   0.23224
  Beta  occ. eigenvalues --    0.23224
  Beta virt. eigenvalues --    0.31162   0.31162   0.73708   0.73810   1.12700
  Beta virt. eigenvalues --    1.12814   1.16629   1.16666   1.16666   1.16669
  Beta virt. eigenvalues --    1.16669   1.16759   1.25651   1.25651   1.25658

 Mulliken charges and spin densities:
               1          2
     1  O   -0.450457   0.564765
     2  O   -0.549543   0.435235
     3  O   -0.549543   0.435235
     4  O   -0.450457   0.564765
 Sum of Mulliken charges =  -2.00000   2.00000

 Dipole moment (field-independent basis, Debye):
    X=             -0.0000    Y=              0.0000    Z=             -0.0000  Tot=              0.0000
 Quadrupole moment (field-independent basis, Debye-Ang):
   XX=            -24.9425   YY=            -24.9425   ZZ=           -150.7533
   XY=              0.0000   XZ=              0.0000   YZ=              0.0000

 Normal termination of Gaussian 16 at Sun Jan  1 01:29:13 2023.
