 Gaussian 16, Revision A.03,
 Gaussian 16:  ES64L-G16RevA.03 25-Dec-2016

 -------------------------------------
 #p CCSD(T)/cc-pVTZ Guess=Read SCF=XQC
 -------------------------------------

 ---------
 O2_O2_131
 ---------
 Symbolic Z-matrix:
 Charge = -2 Multiplicity = 3

                         Standard orientation:
 ---------------------------------------------------------------------
 Center     Atomic      Atomic             Coordinates (Angstroms)
 Number     Number       Type             X           Y           Z
 ---------------------------------------------------------------------
      1          8           0        0.000000    0.000000    1.719962
      2          8           0        0.000000    0.000000    3.072343
      3          8           0        0.000000    0.000000   -3.072343
      4          8           0        0.000000    0.000000   -1.719962
 ---------------------------------------------------------------------

 SCF Done:  E(UHF) =  -298.953663650     A.U. after   11 cycles
 E2 =    -0.1153428685D+01 EUMP2 =    -0.30010709233435D+03
 CCSD(T)
 CCSD(T)= -0.30010051772D+03

 The electronic state is 3-SGG.
 Alpha  occ. eigenvalues --  -20.21182 -20.21182 -20.17504 -20.17504  -1.05309
 Alpha  occ. eigenvalues --   -1.05283  -0.68767  -0.68608  -0.23902  -0.23902
 Alpha  occ. eigenvalues --   -0.23829  -0.23829  -0.18313  -0.17648  -0.02761
 Alpha  occ. eigenvalues --   -0.02761  -0.02627  -0.02627
 Alpha virt. eigenvalues --    0.70968   0.77300   1.07126   1.14241   1.14241
 Alpha virt. eigenvalues --    1.15375   1.15539   1.15539   1.16699   1.22234
 Alpha virt. eigenvalues --    1.22234   1.25573   1.25573   1.36796   1.37096

  Beta  occ. eigenvalues --  -20.17440 -20.17438 -20.15133 -20.15133  -0.97104
  Beta  occ. eigenvalues --   -0.97040  -0.57566  -0.57110  -0.15833  -0.14993
  Beta  occ. eigenvalues --   -0.09498  -0.09498  -0.08905  -0.08905   0.24437
  Beta  occ. eigenvalues --    0.24437
  Beta virt. eigenvalues --    0.37036   0.37036   0.73659   0.81010   1.09429
  Beta virt. eigenvalues --    1.16489   1.17479   1.19376   1.19376   1.20229
  Beta virt. eigenvalues --    1.20229   1.27441   1.27441   1.31103   1.31103

 Mulliken charges and spin densities:
               1          2
     1  O   -0.394814   0.641563
     2  O   -0.605186   0.358437
     3  O   -0.605186   0.358437
     4  O   -0.394814   0.641563
 Sum of Mulliken charges =  -2.00000   2.00000

 Dipole moment (field-independent basis, Debye):
    X=             -0.0000    Y=              0.0000    Z=              0.0000  Tot=              0.0000
 Quadrupole moment (field-independent basis, Debye-Ang):
   XX=            -24.9827   YY=            -24.9827   ZZ=            -92.7443
   XY=              0.0000   XZ=              0.0000   YZ=              0.0000

 Normal termination of Gaussian 16 at Sat Dec 31 22:22:40 2022.
