 Gaussian 16, Revision A.03,
 Gaussian 16:  ES64L-G16RevA.03 25-Dec-2016

 -------------------------------------
 #p CCSD(T)/cc-pVTZ Guess=Read SCF=XQC
 -------------------------------------

 --------
 O2_O2_20
 --------
 Symbolic Z-matrix:
 Charge = -2 Multiplicity = 3

                         Standard orientation:
 ---------------------------------------------------------------------
 Center     Atomic      Atomic             Coordinates (Angstroms)
 Number     Number       Type             X           Y           Z
 ---------------------------------------------------------------------
      1          8           0        0.000000    0.000000    0.934161
      2          8           0        0.000000    0.000000    2.286542
      3          8           0        0.000000    0.000000   -2.286542
      4          8           0        0.000000    0.000000   -0.934161
 ---------------------------------------------------------------------

 SCF Done:  E(UHF) =  -298.958665123     A.U. after   12 cycles
 E2 =    -0.1029796929D+01 EUMP2 =    -0.29998846205144D+03
 CCSD(T)
 CCSD(T)= -0.30002720004D+03

 The electronic state is 3-SGG.
 Alpha  occ. eigenvalues --  -20.19738 -20.19737 -20.09453 -20.09453  -1.03350
 Alpha  occ. eigenvalues --   -1.00799  -0.67669  -0.60679  -0.22533  -0.22533
 Alpha  occ. eigenvalues --   -0.19362  -0.19213  -0.19213  -0.06001   0.01488
 Alpha  occ. eigenvalues --    0.01488   0.03894   0.03894
 Alpha virt. eigenvalues --    0.78104   0.86459   1.15569   1.15569   1.16883
 Alpha virt. eigenvalues --    1.18337   1.21602   1.21602   1.25848   1.25848
 Alpha virt. eigenvalues --    1.38615   1.38821   1.40721   1.40721   1.47504

  Beta  occ. eigenvalues --  -20.14797 -20.14787 -20.08042 -20.08042  -0.93750
  Beta  occ. eigenvalues --   -0.91691  -0.58823  -0.48295  -0.16799  -0.06863
  Beta  occ. eigenvalues --   -0.06863  -0.03478  -0.03478  -0.02325   0.21810
  Beta  occ. eigenvalues --    0.21810
  Beta virt. eigenvalues --    0.50561   0.50561   0.82082   0.90313   1.18520
  Beta virt. eigenvalues --    1.18544   1.22772   1.22772   1.25070   1.25070
  Beta virt. eigenvalues --    1.30206   1.30206   1.39022   1.39719   1.46926

 Mulliken charges and spin densities:
               1          2
     1  O   -0.236580   0.828816
     2  O   -0.763420   0.171184
     3  O   -0.763420   0.171184
     4  O   -0.236580   0.828816
 Sum of Mulliken charges =  -2.00000   2.00000

 Dipole moment (field-independent basis, Debye):
    X=             -0.0000    Y=             -0.0000    Z=              0.0000  Tot=              0.0000
 Quadrupole moment (field-independent basis, Debye-Ang):
   XX=            -25.1073   YY=            -25.1073   ZZ=            -66.5056
   XY=              0.0000   XZ=              0.0000   YZ=              0.0000

 Normal termination of Gaussian 16 at Sat Dec 31 20:08:53 2022.
