 Gaussian 16, Revision A.03,
 Gaussian 16:  ES64L-G16RevA.03 25-Dec-2016

 -------------------------------------
 #p CCSD(T)/cc-pVTZ Guess=Read SCF=XQC
 -------------------------------------

 -------
 O2_O2_4
 -------
 Symbolic Z-matrix:
 Charge = -2 Multiplicity = 3

                         Standard orientation:
 ---------------------------------------------------------------------
 Center     Atomic      Atomic             Coordinates (Angstroms)
 Number     Number       Type             X           Y           Z
 ---------------------------------------------------------------------
      1          8           0        0.000000    0.000000    0.820892
      2          8           0        0.000000    0.000000    2.173273
      3          8           0        0.000000    0.000000   -2.173273
      4          8           0        0.000000    0.000000   -0.820892
 ---------------------------------------------------------------------

 SCF Done:  E(UHF) =  -298.923820725     A.U. after   13 cycles
 E2 =    -0.1022313153D+01 EUMP2 =    -0.29994613387757D+03
 CCSD(T)
 CCSD(T)= -0.29998299834D+03

 The electronic state is 3-SGG.
 Alpha  occ. eigenvalues --  -20.19292 -20.19291 -20.07174 -20.07173  -1.04603
 Alpha  occ. eigenvalues --   -0.99259  -0.69629  -0.57650  -0.23704  -0.23704
 Alpha  occ. eigenvalues --   -0.21029  -0.17627  -0.17627  -0.00229   0.02371
 Alpha  occ. eigenvalues --    0.02371   0.05936   0.05936
 Alpha virt. eigenvalues --    0.78706   0.89572   1.16774   1.16774   1.17674
 Alpha virt. eigenvalues --    1.18067   1.22873   1.22873   1.27879   1.27879
 Alpha virt. eigenvalues --    1.38033   1.38687   1.42526   1.42526   1.53159

  Beta  occ. eigenvalues --  -20.14205 -20.14188 -20.05935 -20.05935  -0.94278
  Beta  occ. eigenvalues --   -0.90213  -0.62423  -0.45200  -0.17918  -0.07148
  Beta  occ. eigenvalues --   -0.07148  -0.01990  -0.01990   0.03903   0.20036
  Beta  occ. eigenvalues --    0.20036
  Beta virt. eigenvalues --    0.54317   0.54317   0.82735   0.93245   1.18072
  Beta virt. eigenvalues --    1.19987   1.23728   1.23728   1.26145   1.26145
  Beta virt. eigenvalues --    1.32404   1.32404   1.38731   1.39075   1.48759

 Mulliken charges and spin densities:
               1          2
     1  O   -0.183270   0.855593
     2  O   -0.816730   0.144407
     3  O   -0.816730   0.144407
     4  O   -0.183270   0.855593
 Sum of Mulliken charges =  -2.00000   2.00000

 Dipole moment (field-independent basis, Debye):
    X=             -0.0000    Y=             -0.0000    Z=             -0.0000  Tot=              0.0000
 Quadrupole moment (field-independent basis, Debye-Ang):
   XX=            -25.0338   YY=            -25.0338   ZZ=            -64.7593
   XY=              0.0000   XZ=              0.0000   YZ=              0.0000

 Normal termination of Gaussian 16 at Sat Dec 31 19:50:36 2022.
