 Gaussian 16, Revision A.03,
 Gaussian 16:  ES64L-G16RevA.03 25-Dec-2016

 -------------------------------------
 #p CCSD(T)/cc-pVTZ Guess=Read SCF=XQC
 -------------------------------------

 ---------
 O2_O2_137
 ---------
 Symbolic Z-matrix:
 Charge = -2 Multiplicity = 3

                         Standard orientation:
 ---------------------------------------------------------------------
 Center     Atomic      Atomic             Coordinates (Angstroms)
 Number     Number       Type             X           Y           Z
 ---------------------------------------------------------------------
      1          8           0        0.000000    0.000000    1.762439
      2          8           0        0.000000    0.000000    3.114819
      3          8           0        0.000000    0.000000   -3.114819
      4          8           0        0.000000    0.000000   -1.762439
 ---------------------------------------------------------------------

 SCF Done:  E(UHF) =  -298.953717243     A.U. after   11 cycles
 E2 =    -0.1159265715D+01 EUMP2 =    -0.30011298295804D+03
 CCSD(T)
 CCSD(T)= -0.30010289128D+03

 The electronic state is 3-SGG.
 Alpha  occ. eigenvalues --  -20.21265 -20.21265 -20.17761 -20.17761  -1.05463
 Alpha  occ. eigenvalues --   -1.05443  -0.68935  -0.68806  -0.24048  -0.24048
 Alpha  occ. eigenvalues --   -0.23988  -0.23988  -0.18447  -0.17883  -0.02935
 Alpha  occ. eigenvalues --   -0.02935  -0.02823  -0.02823
 Alpha virt. eigenvalues --    0.70854   0.76915   1.07119   1.14207   1.14207
 Alpha virt. eigenvalues --    1.15287   1.15292   1.15292   1.16579   1.22257
 Alpha virt. eigenvalues --    1.22257   1.25089   1.25089   1.36279   1.36925

  Beta  occ. eigenvalues --  -20.17557 -20.17555 -20.15363 -20.15362  -0.97277
  Beta  occ. eigenvalues --   -0.97221  -0.57723  -0.57327  -0.15961  -0.15245
  Beta  occ. eigenvalues --   -0.09649  -0.09649  -0.09095  -0.09095   0.24405
  Beta  occ. eigenvalues --    0.24405
  Beta virt. eigenvalues --    0.36668   0.36668   0.73546   0.80596   1.09427
  Beta virt. eigenvalues --    1.16411   1.17353   1.19290   1.19290   1.20014
  Beta virt. eigenvalues --    1.20014   1.27497   1.27497   1.30587   1.30587

 Mulliken charges and spin densities:
               1          2
     1  O   -0.398715   0.635895
     2  O   -0.601285   0.364105
     3  O   -0.601285   0.364105
     4  O   -0.398715   0.635895
 Sum of Mulliken charges =  -2.00000   2.00000

 Dipole moment (field-independent basis, Debye):
    X=             -0.0000    Y=              0.0000    Z=              0.0000  Tot=              0.0000
 Quadrupole moment (field-independent basis, Debye-Ang):
   XX=            -24.9779   YY=            -24.9779   ZZ=            -94.5931
   XY=              0.0000   XZ=              0.0000   YZ=              0.0000

 Normal termination of Gaussian 16 at Sat Dec 31 22:30:25 2022.
