 Gaussian 16, Revision A.03,
 Gaussian 16:  ES64L-G16RevA.03 25-Dec-2016

 -------------------------------------
 #p CCSD(T)/cc-pVTZ Guess=Read SCF=XQC
 -------------------------------------

 --------
 O2_O2_38
 --------
 Symbolic Z-matrix:
 Charge = -2 Multiplicity = 3

                         Standard orientation:
 ---------------------------------------------------------------------
 Center     Atomic      Atomic             Coordinates (Angstroms)
 Number     Number       Type             X           Y           Z
 ---------------------------------------------------------------------
      1          8           0        0.000000    0.000000    1.061589
      2          8           0        0.000000    0.000000    2.413969
      3          8           0        0.000000    0.000000   -2.413969
      4          8           0        0.000000    0.000000   -1.061589
 ---------------------------------------------------------------------

 SCF Done:  E(UHF) =  -298.966702708     A.U. after   12 cycles
 E2 =    -0.1047291421D+01 EUMP2 =    -0.30001399412932D+03
 CCSD(T)
 CCSD(T)= -0.30005065826D+03

 The electronic state is 3-SGG.
 Alpha  occ. eigenvalues --  -20.20190 -20.20189 -20.11440 -20.11439  -1.03196
 Alpha  occ. eigenvalues --   -1.02029  -0.66895  -0.63119  -0.22238  -0.22238
 Alpha  occ. eigenvalues --   -0.20498  -0.20498  -0.18169  -0.10043   0.00600
 Alpha  occ. eigenvalues --    0.00600   0.02137   0.02137
 Alpha virt. eigenvalues --    0.77047   0.84131   1.14237   1.14237   1.16356
 Alpha virt. eigenvalues --    1.18253   1.20388   1.20388   1.24213   1.24213
 Alpha virt. eigenvalues --    1.36158   1.38274   1.38274   1.38741   1.40975

  Beta  occ. eigenvalues --  -20.15468 -20.15462 -20.09821 -20.09821  -0.94079
  Beta  occ. eigenvalues --   -0.93019  -0.56949  -0.50916  -0.15836  -0.07106
  Beta  occ. eigenvalues --   -0.07106  -0.06702  -0.04775  -0.04775   0.23098
  Beta  occ. eigenvalues --    0.23098
  Beta virt. eigenvalues --    0.47038   0.47038   0.80830   0.88043   1.17659
  Beta virt. eigenvalues --    1.18602   1.21367   1.21367   1.24102   1.24102
  Beta virt. eigenvalues --    1.28359   1.28359   1.38102   1.39043   1.41340

 Mulliken charges and spin densities:
               1          2
     1  O   -0.280063   0.791071
     2  O   -0.719937   0.208929
     3  O   -0.719937   0.208929
     4  O   -0.280063   0.791071
 Sum of Mulliken charges =  -2.00000   2.00000

 Dipole moment (field-independent basis, Debye):
    X=             -0.0000    Y=              0.0000    Z=              0.0000  Tot=              0.0000
 Quadrupole moment (field-independent basis, Debye-Ang):
   XX=            -25.1173   YY=            -25.1173   ZZ=            -69.4421
   XY=              0.0000   XZ=              0.0000   YZ=              0.0000

 Normal termination of Gaussian 16 at Sat Dec 31 20:30:04 2022.
