 Gaussian 16, Revision A.03,
 Gaussian 16:  ES64L-G16RevA.03 25-Dec-2016

 -------------------------------------
 #p CCSD(T)/cc-pVTZ Guess=Read SCF=XQC
 -------------------------------------

 --------
 O2_O2_13
 --------
 Symbolic Z-matrix:
 Charge = -2 Multiplicity = 3

                         Standard orientation:
 ---------------------------------------------------------------------
 Center     Atomic      Atomic             Coordinates (Angstroms)
 Number     Number       Type             X           Y           Z
 ---------------------------------------------------------------------
      1          8           0        0.000000    0.000000    0.884606
      2          8           0        0.000000    0.000000    2.236987
      3          8           0        0.000000    0.000000   -2.236987
      4          8           0        0.000000    0.000000   -0.884606
 ---------------------------------------------------------------------

 SCF Done:  E(UHF) =  -298.948307154     A.U. after   12 cycles
 E2 =    -0.1025173240D+01 EUMP2 =    -0.29997348039429D+03
 CCSD(T)
 CCSD(T)= -0.30001193488D+03

 The electronic state is 3-SGG.
 Alpha  occ. eigenvalues --  -20.19526 -20.19524 -20.08530 -20.08530  -1.03684
 Alpha  occ. eigenvalues --   -1.00185  -0.68336  -0.59467  -0.22882  -0.22882
 Alpha  occ. eigenvalues --   -0.20024  -0.18576  -0.18576  -0.03803   0.01861
 Alpha  occ. eigenvalues --    0.01861   0.04724   0.04724
 Alpha virt. eigenvalues --    0.78434   0.87655   1.16142   1.16142   1.17171
 Alpha virt. eigenvalues --    1.18297   1.22132   1.22132   1.26666   1.26666
 Alpha virt. eigenvalues --    1.38504   1.38787   1.41563   1.41563   1.50192

  Beta  occ. eigenvalues --  -20.14513 -20.14501 -20.07198 -20.07198  -0.93814
  Beta  occ. eigenvalues --   -0.91082  -0.60116  -0.47036  -0.17270  -0.06889
  Beta  occ. eigenvalues --   -0.06889  -0.02875  -0.02875   0.00049   0.21115
  Beta  occ. eigenvalues --    0.21115
  Beta virt. eigenvalues --    0.52132   0.52132   0.82457   0.91454   1.18423
  Beta virt. eigenvalues --    1.19043   1.23266   1.23266   1.25509   1.25509
  Beta virt. eigenvalues --    1.31135   1.31135   1.38926   1.39551   1.47779

 Mulliken charges and spin densities:
               1          2
     1  O   -0.215687   0.841862
     2  O   -0.784313   0.158138
     3  O   -0.784313   0.158138
     4  O   -0.215687   0.841862
 Sum of Mulliken charges =  -2.00000   2.00000

 Dipole moment (field-independent basis, Debye):
    X=             -0.0000    Y=              0.0000    Z=             -0.0000  Tot=              0.0000
 Quadrupole moment (field-independent basis, Debye-Ang):
   XX=            -25.0852   YY=            -25.0852   ZZ=            -65.6158
   XY=              0.0000   XZ=              0.0000   YZ=              0.0000

 Normal termination of Gaussian 16 at Sat Dec 31 20:01:02 2022.
