 Gaussian 16, Revision A.03,
 Gaussian 16:  ES64L-G16RevA.03 25-Dec-2016

 -------------------------------------
 #p CCSD(T)/cc-pVTZ Guess=Read SCF=XQC
 -------------------------------------

 ---------
 O2_O2_281
 ---------
 Symbolic Z-matrix:
 Charge = -2 Multiplicity = 3

                         Standard orientation:
 ---------------------------------------------------------------------
 Center     Atomic      Atomic             Coordinates (Angstroms)
 Number     Number       Type             X           Y           Z
 ---------------------------------------------------------------------
      1          8           0        0.000000    0.000000    2.781857
      2          8           0        0.000000    0.000000    4.134237
      3          8           0        0.000000    0.000000   -4.134237
      4          8           0        0.000000    0.000000   -2.781857
 ---------------------------------------------------------------------

 SCF Done:  E(UHF) =  -298.964073232     A.U. after   11 cycles
 E2 =    -0.1277941067D+01 EUMP2 =    -0.30024201429948D+03
 CCSD(T)
 CCSD(T)= -0.30014378181D+03

 The electronic state is 3-SGG.
 Alpha  occ. eigenvalues --  -20.23446 -20.23446 -20.21864 -20.21864  -1.08469
 Alpha  occ. eigenvalues --   -1.08469  -0.72122  -0.72121  -0.26997  -0.26997
 Alpha  occ. eigenvalues --   -0.26997  -0.26997  -0.21432  -0.21429  -0.06125
 Alpha  occ. eigenvalues --   -0.06125  -0.06125  -0.06125
 Alpha virt. eigenvalues --    0.70550   0.70640   1.10850   1.10983   1.11762
 Alpha virt. eigenvalues --    1.11762   1.11764   1.11764   1.15771   1.15882
 Alpha virt. eigenvalues --    1.20346   1.20346   1.20353   1.20353   1.33860

  Beta  occ. eigenvalues --  -20.20102 -20.20101 -20.19126 -20.19125  -1.00392
  Beta  occ. eigenvalues --   -1.00387  -0.60798  -0.60745  -0.18913  -0.18903
  Beta  occ. eigenvalues --   -0.12513  -0.12513  -0.12346  -0.12346   0.23232
  Beta  occ. eigenvalues --    0.23232
  Beta virt. eigenvalues --    0.31187   0.31187   0.73723   0.73830   1.12714
  Beta virt. eigenvalues --    1.12833   1.16644   1.16682   1.16682   1.16685
  Beta virt. eigenvalues --    1.16685   1.16780   1.25667   1.25667   1.25674

 Mulliken charges and spin densities:
               1          2
     1  O   -0.450253   0.565030
     2  O   -0.549747   0.434970
     3  O   -0.549747   0.434970
     4  O   -0.450253   0.565030
 Sum of Mulliken charges =  -2.00000   2.00000

 Dipole moment (field-independent basis, Debye):
    X=             -0.0000    Y=              0.0000    Z=             -0.0000  Tot=              0.0000
 Quadrupole moment (field-independent basis, Debye-Ang):
   XX=            -24.9425   YY=            -24.9425   ZZ=           -150.2927
   XY=              0.0000   XZ=              0.0000   YZ=              0.0000

 Normal termination of Gaussian 16 at Sun Jan  1 01:28:00 2023.
