 Gaussian 16, Revision A.03,
 Gaussian 16:  ES64L-G16RevA.03 25-Dec-2016

 -------------------------------------
 #p CCSD(T)/cc-pVTZ Guess=Read SCF=XQC
 -------------------------------------

 --------
 O2_O2_73
 --------
 Symbolic Z-matrix:
 Charge = -2 Multiplicity = 3

                         Standard orientation:
 ---------------------------------------------------------------------
 Center     Atomic      Atomic             Coordinates (Angstroms)
 Number     Number       Type             X           Y           Z
 ---------------------------------------------------------------------
      1          8           0        0.000000    0.000000    1.309363
      2          8           0        0.000000    0.000000    2.661744
      3          8           0        0.000000    0.000000   -2.661744
      4          8           0        0.000000    0.000000   -1.309363
 ---------------------------------------------------------------------

 SCF Done:  E(UHF) =  -298.959896059     A.U. after   12 cycles
 E2 =    -0.1089344191D+01 EUMP2 =    -0.30004924025005D+03
 CCSD(T)
 CCSD(T)= -0.30007387024D+03

 The electronic state is 3-SGG.
 Alpha  occ. eigenvalues --  -20.20606 -20.20606 -20.14313 -20.14313  -1.03826
 Alpha  occ. eigenvalues --   -1.03556  -0.67183  -0.66033  -0.22607  -0.22607
 Alpha  occ. eigenvalues --   -0.22083  -0.22083  -0.17471  -0.14323  -0.00862
 Alpha  occ. eigenvalues --   -0.00862  -0.00216  -0.00216
 Alpha virt. eigenvalues --    0.74604   0.81095   1.13559   1.13559   1.15743
 Alpha virt. eigenvalues --    1.16963   1.18375   1.18375   1.19979   1.22488
 Alpha virt. eigenvalues --    1.22488   1.32848   1.32848   1.38198   1.38918

  Beta  occ. eigenvalues --  -20.16341 -20.16338 -20.12332 -20.12332  -0.95243
  Beta  occ. eigenvalues --   -0.94909  -0.56313  -0.54194  -0.15114  -0.11369
  Beta  occ. eigenvalues --   -0.07964  -0.07964  -0.06669  -0.06669   0.24254
  Beta  occ. eigenvalues --    0.24254
  Beta virt. eigenvalues --    0.42007   0.42007   0.77892   0.84978   1.16866
  Beta virt. eigenvalues --    1.17613   1.19865   1.19865   1.22010   1.22538
  Beta virt. eigenvalues --    1.22538   1.26923   1.26923   1.38583   1.38834

 Mulliken charges and spin densities:
               1          2
     1  O   -0.339549   0.720522
     2  O   -0.660451   0.279478
     3  O   -0.660451   0.279478
     4  O   -0.339549   0.720522
 Sum of Mulliken charges =  -2.00000   2.00000

 Dipole moment (field-independent basis, Debye):
    X=             -0.0000    Y=             -0.0000    Z=              0.0000  Tot=              0.0000
 Quadrupole moment (field-independent basis, Debye-Ang):
   XX=            -25.0619   YY=            -25.0619   ZZ=            -76.9313
   XY=              0.0000   XZ=              0.0000   YZ=              0.0000

 Normal termination of Gaussian 16 at Sat Dec 31 21:11:39 2022.
