 Gaussian 16, Revision A.03,
 Gaussian 16:  ES64L-G16RevA.03 25-Dec-2016

 -------------------------------------
 #p CCSD(T)/cc-pVTZ Guess=Read SCF=XQC
 -------------------------------------

 ---------
 O2_O2_219
 ---------
 Symbolic Z-matrix:
 Charge = -2 Multiplicity = 3

                         Standard orientation:
 ---------------------------------------------------------------------
 Center     Atomic      Atomic             Coordinates (Angstroms)
 Number     Number       Type             X           Y           Z
 ---------------------------------------------------------------------
      1          8           0        0.000000    0.000000    2.342940
      2          8           0        0.000000    0.000000    3.695320
      3          8           0        0.000000    0.000000   -3.695320
      4          8           0        0.000000    0.000000   -2.342940
 ---------------------------------------------------------------------

 SCF Done:  E(UHF) =  -298.959104012     A.U. after   11 cycles
 E2 =    -0.1229814022D+01 EUMP2 =    -0.30018891803377D+03
 CCSD(T)
 CCSD(T)= -0.30012936473D+03

 The electronic state is 3-SGG.
 Alpha  occ. eigenvalues --  -20.22560 -20.22560 -20.20469 -20.20469  -1.07361
 Alpha  occ. eigenvalues --   -1.07361  -0.70965  -0.70959  -0.25898  -0.25898
 Alpha  occ. eigenvalues --   -0.25895  -0.25895  -0.20289  -0.20246  -0.04971
 Alpha  occ. eigenvalues --   -0.04971  -0.04965  -0.04965
 Alpha virt. eigenvalues --    0.71278   0.72336   1.11219   1.12788   1.12839
 Alpha virt. eigenvalues --    1.12839   1.12887   1.12887   1.16368   1.18222
 Alpha virt. eigenvalues --    1.21420   1.21420   1.21558   1.21558   1.34949

  Beta  occ. eigenvalues --  -20.19122 -20.19121 -20.17828 -20.17828  -0.99272
  Beta  occ. eigenvalues --   -0.99261  -0.59671  -0.59575  -0.17772  -0.17708
  Beta  occ. eigenvalues --   -0.11459  -0.11459  -0.11201  -0.11201   0.23731
  Beta  occ. eigenvalues --    0.23731
  Beta virt. eigenvalues --    0.33002   0.33002   0.74374   0.75614   1.13187
  Beta virt. eigenvalues --    1.14404   1.17168   1.17748   1.17748   1.17787
  Beta virt. eigenvalues --    1.17787   1.19287   1.26750   1.26750   1.26895

 Mulliken charges and spin densities:
               1          2
     1  O   -0.434698   0.585389
     2  O   -0.565302   0.414611
     3  O   -0.565302   0.414611
     4  O   -0.434698   0.585389
 Sum of Mulliken charges =  -2.00000   2.00000

 Dipole moment (field-independent basis, Debye):
    X=             -0.0000    Y=              0.0000    Z=             -0.0000  Tot=              0.0000
 Quadrupole moment (field-independent basis, Debye-Ang):
   XX=            -24.9479   YY=            -24.9479   ZZ=           -123.7019
   XY=              0.0000   XZ=              0.0000   YZ=              0.0000

 4165\PMP3-0=-300.189373\MP4SDQ=-299.833017\CCSD=-300.013962\CCSD(T)=-3
 Normal termination of Gaussian 16 at Sun Jan  1 00:11:58 2023.
