 Gaussian 16, Revision A.03,
 Gaussian 16:  ES64L-G16RevA.03 25-Dec-2016

 -------------------------------------
 #p CCSD(T)/cc-pVTZ Guess=Read SCF=XQC
 -------------------------------------

 ---------
 O2_O2_215
 ---------
 Symbolic Z-matrix:
 Charge = -2 Multiplicity = 3

                         Standard orientation:
 ---------------------------------------------------------------------
 Center     Atomic      Atomic             Coordinates (Angstroms)
 Number     Number       Type             X           Y           Z
 ---------------------------------------------------------------------
      1          8           0        0.000000    0.000000    2.314623
      2          8           0        0.000000    0.000000    3.667003
      3          8           0        0.000000    0.000000   -3.667003
      4          8           0        0.000000    0.000000   -2.314623
 ---------------------------------------------------------------------

 SCF Done:  E(UHF) =  -298.958765087     A.U. after   11 cycles
 E2 =    -0.1226624900D+01 EUMP2 =    -0.30018538998764D+03
 CCSD(T)
 CCSD(T)= -0.30012829278D+03

 The electronic state is 3-SGG.
 Alpha  occ. eigenvalues --  -20.22497 -20.22497 -20.20363 -20.20363  -1.07280
 Alpha  occ. eigenvalues --   -1.07279  -0.70879  -0.70872  -0.25817  -0.25817
 Alpha  occ. eigenvalues --   -0.25814  -0.25814  -0.20206  -0.20156  -0.04886
 Alpha  occ. eigenvalues --   -0.04886  -0.04879  -0.04879
 Alpha virt. eigenvalues --    0.71293   0.72496   1.11163   1.12915   1.12915
 Alpha virt. eigenvalues --    1.12944   1.12973   1.12973   1.16362   1.18527
 Alpha virt. eigenvalues --    1.21491   1.21491   1.21656   1.21656   1.35029

  Beta  occ. eigenvalues --  -20.19051 -20.19051 -20.17731 -20.17731  -0.99190
  Beta  occ. eigenvalues --   -0.99177  -0.59588  -0.59488  -0.17689  -0.17616
  Beta  occ. eigenvalues --   -0.11382  -0.11382  -0.11116  -0.11116   0.23766
  Beta  occ. eigenvalues --    0.23766
  Beta virt. eigenvalues --    0.33140   0.33140   0.74377   0.75787   1.13150
  Beta virt. eigenvalues --    1.14529   1.17152   1.17824   1.17824   1.17870
  Beta virt. eigenvalues --    1.17870   1.19614   1.26821   1.26821   1.26995

 Mulliken charges and spin densities:
               1          2
     1  O   -0.433451   0.587052
     2  O   -0.566549   0.412948
     3  O   -0.566549   0.412948
     4  O   -0.433451   0.587052
 Sum of Mulliken charges =  -2.00000   2.00000

 Dipole moment (field-independent basis, Debye):
    X=             -0.0000    Y=              0.0000    Z=             -0.0000  Tot=              0.0000
 Quadrupole moment (field-independent basis, Debye-Ang):
   XX=            -24.9484   YY=            -24.9484   ZZ=           -122.1202
   XY=              0.0000   XZ=              0.0000   YZ=              0.0000

 Normal termination of Gaussian 16 at Sun Jan  1 00:06:54 2023.
