 Gaussian 16, Revision A.03,
 Gaussian 16:  ES64L-G16RevA.03 25-Dec-2016

 -------------------------------------
 #p CCSD(T)/cc-pVTZ Guess=Read SCF=XQC
 -------------------------------------

 ---------
 O2_O2_169
 ---------
 Symbolic Z-matrix:
 Charge = -2 Multiplicity = 3

                         Standard orientation:
 ---------------------------------------------------------------------
 Center     Atomic      Atomic             Coordinates (Angstroms)
 Number     Number       Type             X           Y           Z
 ---------------------------------------------------------------------
      1          8           0        0.000000    0.000000    1.988976
      2          8           0        0.000000    0.000000    3.341356
      3          8           0        0.000000    0.000000   -3.341356
      4          8           0        0.000000    0.000000   -1.988976
 ---------------------------------------------------------------------

 SCF Done:  E(UHF) =  -298.955141058     A.U. after   11 cycles
 E2 =    -0.1188455946D+01 EUMP2 =    -0.30014359700486D+03
 CCSD(T)
 CCSD(T)= -0.30011445215D+03

 The electronic state is 3-SGG.
 Alpha  occ. eigenvalues --  -20.21753 -20.21753 -20.18974 -20.18974  -1.06257
 Alpha  occ. eigenvalues --   -1.06252  -0.69794  -0.69752  -0.24813  -0.24813
 Alpha  occ. eigenvalues --   -0.24794  -0.24794  -0.19187  -0.18959  -0.03801
 Alpha  occ. eigenvalues --   -0.03801  -0.03762  -0.03762
 Alpha virt. eigenvalues --    0.70978   0.74885   1.08901   1.13786   1.13786
 Alpha virt. eigenvalues --    1.14158   1.14158   1.14587   1.16218   1.22161
 Alpha virt. eigenvalues --    1.22161   1.23187   1.23187   1.25792   1.36028

  Beta  occ. eigenvalues --  -20.18185 -20.18184 -20.16457 -20.16457  -0.98133
  Beta  occ. eigenvalues --   -0.98106  -0.58541  -0.58336  -0.16680  -0.16384
  Beta  occ. eigenvalues --   -0.10413  -0.10413  -0.10017  -0.10017   0.24170
  Beta  occ. eigenvalues --    0.24170
  Beta virt. eigenvalues --    0.34985   0.34985   0.73820   0.78391   1.11121
  Beta virt. eigenvalues --    1.15820   1.16953   1.18727   1.18727   1.18995
  Beta virt. eigenvalues --    1.18995   1.27068   1.27483   1.27483   1.28577

 Mulliken charges and spin densities:
               1          2
     1  O   -0.415945   0.611171
     2  O   -0.584055   0.388829
     3  O   -0.584055   0.388829
     4  O   -0.415945   0.611171
 Sum of Mulliken charges =  -2.00000   2.00000

 Dipole moment (field-independent basis, Debye):
    X=             -0.0000    Y=              0.0000    Z=             -0.0000  Tot=              0.0000
 Quadrupole moment (field-independent basis, Debye-Ang):
   XX=            -24.9600   YY=            -24.9600   ZZ=           -105.1124
   XY=              0.0000   XZ=              0.0000   YZ=              0.0000

 Normal termination of Gaussian 16 at Sat Dec 31 23:09:51 2022.
