 Gaussian 16, Revision A.03,
 Gaussian 16:  ES64L-G16RevA.03 25-Dec-2016

 -------------------------------------
 #p CCSD(T)/cc-pVTZ Guess=Read SCF=XQC
 -------------------------------------

 ---------
 O2_O2_200
 ---------
 Symbolic Z-matrix:
 Charge = -2 Multiplicity = 3

                         Standard orientation:
 ---------------------------------------------------------------------
 Center     Atomic      Atomic             Coordinates (Angstroms)
 Number     Number       Type             X           Y           Z
 ---------------------------------------------------------------------
      1          8           0        0.000000    0.000000    2.208433
      2          8           0        0.000000    0.000000    3.560814
      3          8           0        0.000000    0.000000   -3.560814
      4          8           0        0.000000    0.000000   -2.208433
 ---------------------------------------------------------------------

 SCF Done:  E(UHF) =  -298.957503622     A.U. after   10 cycles
 E2 =    -0.1214515646D+01 EUMP2 =    -0.30017201926797D+03
 CCSD(T)
 CCSD(T)= -0.30012409750D+03

 The electronic state is 3-SGG.
 Alpha  occ. eigenvalues --  -20.22257 -20.22257 -20.19948 -20.19948  -1.06964
 Alpha  occ. eigenvalues --   -1.06963  -0.70546  -0.70533  -0.25506  -0.25506
 Alpha  occ. eigenvalues --   -0.25500  -0.25500  -0.19886  -0.19801  -0.04553
 Alpha  occ. eigenvalues --   -0.04553  -0.04540  -0.04540
 Alpha virt. eigenvalues --    0.71286   0.73167   1.10768   1.13205   1.13205
 Alpha virt. eigenvalues --    1.13316   1.13316   1.13536   1.16299   1.20033
 Alpha virt. eigenvalues --    1.21748   1.21748   1.22061   1.22061   1.35337

  Beta  occ. eigenvalues --  -20.18778 -20.18778 -20.17348 -20.17348  -0.98867
  Beta  occ. eigenvalues --   -0.98851  -0.59266  -0.59143  -0.17371  -0.17254
  Beta  occ. eigenvalues --   -0.11083  -0.11083  -0.10783  -0.10783   0.23899
  Beta  occ. eigenvalues --    0.23899
  Beta virt. eigenvalues --    0.33686   0.33686   0.74310   0.76515   1.12835
  Beta virt. eigenvalues --    1.14993   1.17048   1.18116   1.18116   1.18201
  Beta virt. eigenvalues --    1.18201   1.21208   1.27080   1.27080   1.27410

 Mulliken charges and spin densities:
               1          2
     1  O   -0.428434   0.593818
     2  O   -0.571566   0.406182
     3  O   -0.571566   0.406182
     4  O   -0.428434   0.593818
 Sum of Mulliken charges =  -2.00000   2.00000

 Dipole moment (field-independent basis, Debye):
    X=             -0.0000    Y=              0.0000    Z=             -0.0000  Tot=              0.0000
 Quadrupole moment (field-independent basis, Debye-Ang):
   XX=            -24.9511   YY=            -24.9511   ZZ=           -116.3347
   XY=              0.0000   XZ=              0.0000   YZ=              0.0000

 Normal termination of Gaussian 16 at Sat Dec 31 23:48:39 2022.
