 Gaussian 16, Revision A.03,
 Gaussian 16:  ES64L-G16RevA.03 25-Dec-2016

 -------------------------------------
 #p CCSD(T)/cc-pVTZ Guess=Read SCF=XQC
 -------------------------------------

 ---------
 O2_O2_102
 ---------
 Symbolic Z-matrix:
 Charge = -2 Multiplicity = 3

                         Standard orientation:
 ---------------------------------------------------------------------
 Center     Atomic      Atomic             Coordinates (Angstroms)
 Number     Number       Type             X           Y           Z
 ---------------------------------------------------------------------
      1          8           0        0.000000    0.000000    1.514663
      2          8           0        0.000000    0.000000    2.867043
      3          8           0        0.000000    0.000000   -2.867043
      4          8           0        0.000000    0.000000   -1.514663
 ---------------------------------------------------------------------

 SCF Done:  E(UHF) =  -298.954988935     A.U. after   11 cycles
 E2 =    -0.1123151469D+01 EUMP2 =    -0.30007814040381D+03
 CCSD(T)
 CCSD(T)= -0.30008806969D+03

 The electronic state is 3-SGG.
 Alpha  occ. eigenvalues --  -20.20847 -20.20846 -20.16090 -20.16090  -1.04554
 Alpha  occ. eigenvalues --   -1.04471  -0.67941  -0.67512  -0.23211  -0.23211
 Alpha  occ. eigenvalues --   -0.23014  -0.23014  -0.17744  -0.16291  -0.01870
 Alpha  occ. eigenvalues --   -0.01870  -0.01566  -0.01566
 Alpha virt. eigenvalues --    0.72379   0.79146   1.09926   1.14074   1.14074
 Alpha virt. eigenvalues --    1.15615   1.16874   1.16874   1.17478   1.22119
 Alpha virt. eigenvalues --    1.22119   1.28645   1.28645   1.37565   1.37970

  Beta  occ. eigenvalues --  -20.16889 -20.16887 -20.13883 -20.13883  -0.96215
  Beta  occ. eigenvalues --   -0.96075  -0.56829  -0.55885  -0.15309  -0.13522
  Beta  occ. eigenvalues --   -0.08742  -0.08742  -0.07888  -0.07888   0.24495
  Beta  occ. eigenvalues --    0.24495
  Beta virt. eigenvalues --    0.39143   0.39143   0.75256   0.82961   1.12032
  Beta virt. eigenvalues --    1.16711   1.18321   1.19648   1.19648   1.21345
  Beta virt. eigenvalues --    1.21345   1.27027   1.27027   1.34379   1.34379

 Mulliken charges and spin densities:
               1          2
     1  O   -0.371844   0.674986
     2  O   -0.628156   0.325014
     3  O   -0.628156   0.325014
     4  O   -0.371844   0.674986
 Sum of Mulliken charges =  -2.00000   2.00000

 Dipole moment (field-independent basis, Debye):
    X=             -0.0000    Y=             -0.0000    Z=             -0.0000  Tot=              0.0000
 Quadrupole moment (field-independent basis, Debye-Ang):
   XX=            -25.0148   YY=            -25.0148   ZZ=            -84.3658
   XY=              0.0000   XZ=              0.0000   YZ=              0.0000

 Normal termination of Gaussian 16 at Sat Dec 31 21:46:58 2022.
