 Gaussian 16, Revision A.03,
 Gaussian 16:  ES64L-G16RevA.03 25-Dec-2016

 -------------------------------------
 #p CCSD(T)/cc-pVTZ Guess=Read SCF=XQC
 -------------------------------------

 --------
 O2_O2_77
 --------
 Symbolic Z-matrix:
 Charge = -2 Multiplicity = 3

                         Standard orientation:
 ---------------------------------------------------------------------
 Center     Atomic      Atomic             Coordinates (Angstroms)
 Number     Number       Type             X           Y           Z
 ---------------------------------------------------------------------
      1          8           0        0.000000    0.000000    1.337681
      2          8           0        0.000000    0.000000    2.690061
      3          8           0        0.000000    0.000000   -2.690061
      4          8           0        0.000000    0.000000   -1.337681
 ---------------------------------------------------------------------

 SCF Done:  E(UHF) =  -298.958994982     A.U. after   12 cycles
 E2 =    -0.1094182804D+01 EUMP2 =    -0.30005317778630D+03
 CCSD(T)
 CCSD(T)= -0.30007595976D+03

 The electronic state is 3-SGG.
 Alpha  occ. eigenvalues --  -20.20637 -20.20637 -20.14585 -20.14585  -1.03922
 Alpha  occ. eigenvalues --   -1.03693  -0.67276  -0.66272  -0.22681  -0.22681
 Alpha  occ. eigenvalues --   -0.22223  -0.22223  -0.17479  -0.14650  -0.01010
 Alpha  occ. eigenvalues --   -0.01010  -0.00426  -0.00426
 Alpha virt. eigenvalues --    0.74293   0.80809   1.13614   1.13614   1.15712
 Alpha virt. eigenvalues --    1.16196   1.18160   1.18160   1.19056   1.22388
 Alpha virt. eigenvalues --    1.22388   1.32223   1.32223   1.38118   1.38783

  Beta  occ. eigenvalues --  -20.16420 -20.16417 -20.12569 -20.12569  -0.95381
  Beta  occ. eigenvalues --   -0.95086  -0.56356  -0.54468  -0.15110  -0.11727
  Beta  occ. eigenvalues --   -0.08071  -0.08071  -0.06852  -0.06852   0.24314
  Beta  occ. eigenvalues --    0.24314
  Beta virt. eigenvalues --    0.41554   0.41554   0.77520   0.84684   1.16828
  Beta virt. eigenvalues --    1.17146   1.19811   1.19811   1.20823   1.22370
  Beta virt. eigenvalues --    1.22370   1.26887   1.26887   1.38176   1.38176

 Mulliken charges and spin densities:
               1          2
     1  O   -0.344707   0.713461
     2  O   -0.655293   0.286539
     3  O   -0.655293   0.286539
     4  O   -0.344707   0.713461
 Sum of Mulliken charges =  -2.00000   2.00000

 Dipole moment (field-independent basis, Debye):
    X=             -0.0000    Y=             -0.0000    Z=              0.0000  Tot=              0.0000
 Quadrupole moment (field-independent basis, Debye-Ang):
   XX=            -25.0546   YY=            -25.0546   ZZ=            -77.8979
   XY=              0.0000   XZ=              0.0000   YZ=              0.0000

 Normal termination of Gaussian 16 at Sat Dec 31 21:16:14 2022.
