 Gaussian 16, Revision A.03,
 Gaussian 16:  ES64L-G16RevA.03 25-Dec-2016

 -------------------------------------
 #p CCSD(T)/cc-pVTZ Guess=Read SCF=XQC
 -------------------------------------

 ---------
 O2_O2_162
 ---------
 Symbolic Z-matrix:
 Charge = -2 Multiplicity = 3

                         Standard orientation:
 ---------------------------------------------------------------------
 Center     Atomic      Atomic             Coordinates (Angstroms)
 Number     Number       Type             X           Y           Z
 ---------------------------------------------------------------------
      1          8           0        0.000000    0.000000    1.939421
      2          8           0        0.000000    0.000000    3.291801
      3          8           0        0.000000    0.000000   -3.291801
      4          8           0        0.000000    0.000000   -1.939421
 ---------------------------------------------------------------------

 SCF Done:  E(UHF) =  -298.954705776     A.U. after   11 cycles
 E2 =    -0.1182310595D+01 EUMP2 =    -0.30013701637094D+03
 CCSD(T)
 CCSD(T)= -0.30011207324D+03

 The electronic state is 3-SGG.
 Alpha  occ. eigenvalues --  -20.21641 -20.21641 -20.18729 -20.18729  -1.06089
 Alpha  occ. eigenvalues --   -1.06081  -0.69613  -0.69559  -0.24649  -0.24649
 Alpha  occ. eigenvalues --   -0.24624  -0.24624  -0.19024  -0.18745  -0.03620
 Alpha  occ. eigenvalues --   -0.03620  -0.03570  -0.03570
 Alpha virt. eigenvalues --    0.70890   0.75318   1.08374   1.13902   1.13902
 Alpha virt. eigenvalues --    1.14380   1.14380   1.14773   1.16254   1.22216
 Alpha virt. eigenvalues --    1.22216   1.23521   1.23521   1.27722   1.36194

  Beta  occ. eigenvalues --  -20.18048 -20.18047 -20.16234 -20.16234  -0.97955
  Beta  occ. eigenvalues --   -0.97924  -0.58367  -0.58133  -0.16521  -0.16159
  Beta  occ. eigenvalues --   -0.10252  -0.10252  -0.09828  -0.09828   0.24227
  Beta  occ. eigenvalues --    0.24227
  Beta virt. eigenvalues --    0.35318   0.35318   0.73686   0.78865   1.10621
  Beta virt. eigenvalues --    1.15973   1.16997   1.18861   1.18861   1.19200
  Beta virt. eigenvalues --    1.19200   1.27529   1.27529   1.28928   1.28928

 Mulliken charges and spin densities:
               1          2
     1  O   -0.412621   0.615888
     2  O   -0.587379   0.384112
     3  O   -0.587379   0.384112
     4  O   -0.412621   0.615888
 Sum of Mulliken charges =  -2.00000   2.00000

 Dipole moment (field-independent basis, Debye):
    X=             -0.0000    Y=              0.0000    Z=             -0.0000  Tot=              0.0000
 Quadrupole moment (field-independent basis, Debye-Ang):
   XX=            -24.9629   YY=            -24.9629   ZZ=           -102.7174
   XY=              0.0000   XZ=              0.0000   YZ=              0.0000

 Normal termination of Gaussian 16 at Sat Dec 31 23:01:28 2022.
