 Gaussian 16, Revision A.03,
 Gaussian 16:  ES64L-G16RevA.03 25-Dec-2016

 -------------------------------------
 #p CCSD(T)/cc-pVTZ Guess=Read SCF=XQC
 -------------------------------------

 ---------
 O2_O2_214
 ---------
 Symbolic Z-matrix:
 Charge = -2 Multiplicity = 3

                         Standard orientation:
 ---------------------------------------------------------------------
 Center     Atomic      Atomic             Coordinates (Angstroms)
 Number     Number       Type             X           Y           Z
 ---------------------------------------------------------------------
      1          8           0        0.000000    0.000000    2.307544
      2          8           0        0.000000    0.000000    3.659924
      3          8           0        0.000000    0.000000   -3.659924
      4          8           0        0.000000    0.000000   -2.307544
 ---------------------------------------------------------------------

 SCF Done:  E(UHF) =  -298.958680382     A.U. after   11 cycles
 E2 =    -0.1225825253D+01 EUMP2 =    -0.30018450563503D+03
 CCSD(T)
 CCSD(T)= -0.30012802192D+03

 The electronic state is 3-SGG.
 Alpha  occ. eigenvalues --  -20.22482 -20.22482 -20.20337 -20.20337  -1.07260
 Alpha  occ. eigenvalues --   -1.07259  -0.70858  -0.70850  -0.25797  -0.25797
 Alpha  occ. eigenvalues --   -0.25794  -0.25794  -0.20185  -0.20133  -0.04864
 Alpha  occ. eigenvalues --   -0.04864  -0.04857  -0.04857
 Alpha virt. eigenvalues --    0.71296   0.72537   1.11146   1.12934   1.12934
 Alpha virt. eigenvalues --    1.12984   1.12995   1.12995   1.16360   1.18609
 Alpha virt. eigenvalues --    1.21508   1.21508   1.21681   1.21681   1.35049

  Beta  occ. eigenvalues --  -20.19033 -20.19033 -20.17706 -20.17706  -0.99169
  Beta  occ. eigenvalues --   -0.99156  -0.59568  -0.59465  -0.17668  -0.17593
  Beta  occ. eigenvalues --   -0.11362  -0.11362  -0.11095  -0.11095   0.23775
  Beta  occ. eigenvalues --    0.23775
  Beta virt. eigenvalues --    0.33175   0.33175   0.74376   0.75831   1.13138
  Beta virt. eigenvalues --    1.14560   1.17146   1.17843   1.17843   1.17891
  Beta virt. eigenvalues --    1.17891   1.19701   1.26839   1.26839   1.27021

 Mulliken charges and spin densities:
               1          2
     1  O   -0.433134   0.587476
     2  O   -0.566866   0.412524
     3  O   -0.566866   0.412524
     4  O   -0.433134   0.587476
 Sum of Mulliken charges =  -2.00000   2.00000

 Dipole moment (field-independent basis, Debye):
    X=             -0.0000    Y=             -0.0000    Z=              0.0000  Tot=              0.0000
 Quadrupole moment (field-independent basis, Debye-Ang):
   XX=            -24.9486   YY=            -24.9486   ZZ=           -121.7274
   XY=              0.0000   XZ=              0.0000   YZ=              0.0000

 Normal termination of Gaussian 16 at Sun Jan  1 00:05:44 2023.
