 Gaussian 16, Revision A.03,
 Gaussian 16:  ES64L-G16RevA.03 25-Dec-2016

 -------------------------------------
 #p CCSD(T)/cc-pVTZ Guess=Read SCF=XQC
 -------------------------------------

 --------
 O2_O2_33
 --------
 Symbolic Z-matrix:
 Charge = -2 Multiplicity = 3

                         Standard orientation:
 ---------------------------------------------------------------------
 Center     Atomic      Atomic             Coordinates (Angstroms)
 Number     Number       Type             X           Y           Z
 ---------------------------------------------------------------------
      1          8           0        0.000000    0.000000    1.026192
      2          8           0        0.000000    0.000000    2.378572
      3          8           0        0.000000    0.000000   -2.378572
      4          8           0        0.000000    0.000000   -1.026192
 ---------------------------------------------------------------------

 SCF Done:  E(UHF) =  -298.966180477     A.U. after   12 cycles
 E2 =    -0.1041871762D+01 EUMP2 =    -0.30000805223908D+03
 CCSD(T)
 CCSD(T)= -0.30004564057D+03

 The electronic state is 3-SGG.
 Alpha  occ. eigenvalues --  -20.20085 -20.20084 -20.10934 -20.10934  -1.03176
 Alpha  occ. eigenvalues --   -1.01731  -0.67007  -0.62526  -0.22262  -0.22262
 Alpha  occ. eigenvalues --   -0.20186  -0.20186  -0.18429  -0.09104   0.00836
 Alpha  occ. eigenvalues --    0.00836   0.02577   0.02577
 Alpha virt. eigenvalues --    0.77358   0.84696   1.14556   1.14556   1.16483
 Alpha virt. eigenvalues --    1.18287   1.20707   1.20707   1.24605   1.24605
 Alpha virt. eigenvalues --    1.37630   1.38783   1.38989   1.38989   1.42276

  Beta  occ. eigenvalues --  -20.15298 -20.15291 -20.09372 -20.09372  -0.93947
  Beta  occ. eigenvalues --   -0.92681  -0.57306  -0.50269  -0.16063  -0.07012
  Beta  occ. eigenvalues --   -0.07012  -0.05683  -0.04445  -0.04445   0.22802
  Beta  occ. eigenvalues --    0.22802
  Beta virt. eigenvalues --    0.47944   0.47944   0.81201   0.88601   1.17851
  Beta virt. eigenvalues --    1.18606   1.21745   1.21745   1.24353   1.24353
  Beta virt. eigenvalues --    1.28784   1.28784   1.39064   1.39240   1.42816

 Mulliken charges and spin densities:
               1          2
     1  O   -0.269059   0.801828
     2  O   -0.730941   0.198172
     3  O   -0.730941   0.198172
     4  O   -0.269059   0.801828
 Sum of Mulliken charges =  -2.00000   2.00000

 Dipole moment (field-independent basis, Debye):
    X=             -0.0000    Y=              0.0000    Z=             -0.0000  Tot=              0.0000
 Quadrupole moment (field-independent basis, Debye-Ang):
   XX=            -25.1194   YY=            -25.1194   ZZ=            -68.5477
   XY=              0.0000   XZ=              0.0000   YZ=              0.0000

 Normal termination of Gaussian 16 at Sat Dec 31 20:24:07 2022.
