 Gaussian 16, Revision A.03,
 Gaussian 16:  ES64L-G16RevA.03 25-Dec-2016

 -------------------------------------
 #p CCSD(T)/cc-pVTZ Guess=Read SCF=XQC
 -------------------------------------

 ---------
 O2_O2_160
 ---------
 Symbolic Z-matrix:
 Charge = -2 Multiplicity = 3

                         Standard orientation:
 ---------------------------------------------------------------------
 Center     Atomic      Atomic             Coordinates (Angstroms)
 Number     Number       Type             X           Y           Z
 ---------------------------------------------------------------------
      1          8           0        0.000000    0.000000    1.925262
      2          8           0        0.000000    0.000000    3.277642
      3          8           0        0.000000    0.000000   -3.277642
      4          8           0        0.000000    0.000000   -1.925262
 ---------------------------------------------------------------------

 SCF Done:  E(UHF) =  -298.954591500     A.U. after   11 cycles
 E2 =    -0.1180532975D+01 EUMP2 =    -0.30013512447522D+03
 CCSD(T)
 CCSD(T)= -0.30011137873D+03

 The electronic state is 3-SGG.
 Alpha  occ. eigenvalues --  -20.21609 -20.21609 -20.18657 -20.18657  -1.06040
 Alpha  occ. eigenvalues --   -1.06032  -0.69560  -0.69502  -0.24601  -0.24601
 Alpha  occ. eigenvalues --   -0.24575  -0.24575  -0.18978  -0.18682  -0.03567
 Alpha  occ. eigenvalues --   -0.03567  -0.03513  -0.03513
 Alpha virt. eigenvalues --    0.70867   0.75443   1.08228   1.13934   1.13934
 Alpha virt. eigenvalues --    1.14446   1.14446   1.14823   1.16269   1.22228
 Alpha virt. eigenvalues --    1.22228   1.23624   1.23624   1.28320   1.36243

  Beta  occ. eigenvalues --  -20.18008 -20.18007 -20.16169 -20.16169  -0.97903
  Beta  occ. eigenvalues --   -0.97870  -0.58317  -0.58074  -0.16475  -0.16093
  Beta  occ. eigenvalues --   -0.10205  -0.10205  -0.09773  -0.09773   0.24243
  Beta  occ. eigenvalues --    0.24243
  Beta virt. eigenvalues --    0.35417   0.35417   0.73652   0.79001   1.10482
  Beta virt. eigenvalues --    1.16015   1.17015   1.18899   1.18899   1.19260
  Beta virt. eigenvalues --    1.19260   1.27538   1.27538   1.29036   1.29036

 Mulliken charges and spin densities:
               1          2
     1  O   -0.411630   0.617300
     2  O   -0.588370   0.382700
     3  O   -0.588370   0.382700
     4  O   -0.411630   0.617300
 Sum of Mulliken charges =  -2.00000   2.00000

 Dipole moment (field-independent basis, Debye):
    X=             -0.0000    Y=              0.0000    Z=             -0.0000  Tot=              0.0000
 Quadrupole moment (field-independent basis, Debye-Ang):
   XX=            -24.9639   YY=            -24.9639   ZZ=           -102.0427
   XY=              0.0000   XZ=              0.0000   YZ=              0.0000

 Normal termination of Gaussian 16 at Sat Dec 31 22:59:00 2022.
