 Gaussian 16, Revision A.03,
 Gaussian 16:  ES64L-G16RevA.03 25-Dec-2016

 -------------------------------------
 #p CCSD(T)/cc-pVTZ Guess=Read SCF=XQC
 -------------------------------------

 ---------
 O2_O2_174
 ---------
 Symbolic Z-matrix:
 Charge = -2 Multiplicity = 3

                         Standard orientation:
 ---------------------------------------------------------------------
 Center     Atomic      Atomic             Coordinates (Angstroms)
 Number     Number       Type             X           Y           Z
 ---------------------------------------------------------------------
      1          8           0        0.000000    0.000000    2.024372
      2          8           0        0.000000    0.000000    3.376752
      3          8           0        0.000000    0.000000   -3.376752
      4          8           0        0.000000    0.000000   -2.024372
 ---------------------------------------------------------------------

 SCF Done:  E(UHF) =  -298.955481120     A.U. after   11 cycles
 E2 =    -0.1192778042D+01 EUMP2 =    -0.30014825916225D+03
 CCSD(T)
 CCSD(T)= -0.30011610360D+03

 The electronic state is 3-SGG.
 Alpha  occ. eigenvalues --  -20.21833 -20.21833 -20.19143 -20.19143  -1.06376
 Alpha  occ. eigenvalues --   -1.06372  -0.69921  -0.69886  -0.24928  -0.24928
 Alpha  occ. eigenvalues --   -0.24913  -0.24913  -0.19302  -0.19106  -0.03929
 Alpha  occ. eigenvalues --   -0.03929  -0.03895  -0.03895
 Alpha virt. eigenvalues --    0.71045   0.74583   1.09276   1.13697   1.13697
 Alpha virt. eigenvalues --    1.14007   1.14007   1.14442   1.16208   1.22112
 Alpha virt. eigenvalues --    1.22112   1.22969   1.22969   1.24568   1.35911

  Beta  occ. eigenvalues --  -20.18283 -20.18282 -20.16610 -20.16610  -0.98258
  Beta  occ. eigenvalues --   -0.98233  -0.58663  -0.58476  -0.16794  -0.16537
  Beta  occ. eigenvalues --   -0.10526  -0.10526  -0.10148  -0.10148   0.24128
  Beta  occ. eigenvalues --    0.24128
  Beta virt. eigenvalues --    0.34757   0.34757   0.73919   0.78061   1.11474
  Beta virt. eigenvalues --    1.15703   1.16938   1.18630   1.18630   1.18855
  Beta virt. eigenvalues --    1.18855   1.25841   1.27437   1.27437   1.28350

 Mulliken charges and spin densities:
               1          2
     1  O   -0.418191   0.608003
     2  O   -0.581809   0.391997
     3  O   -0.581809   0.391997
     4  O   -0.418191   0.608003
 Sum of Mulliken charges =  -2.00000   2.00000

 Dipole moment (field-independent basis, Debye):
    X=             -0.0000    Y=              0.0000    Z=             -0.0000  Tot=              0.0000
 Quadrupole moment (field-independent basis, Debye-Ang):
   XX=            -24.9581   YY=            -24.9581   ZZ=           -106.8548
   XY=              0.0000   XZ=              0.0000   YZ=              0.0000

 Normal termination of Gaussian 16 at Sat Dec 31 23:15:48 2022.
