 Gaussian 16, Revision A.03,
 Gaussian 16:  ES64L-G16RevA.03 25-Dec-2016

 -------------------------------------
 #p CCSD(T)/cc-pVTZ Guess=Read SCF=XQC
 -------------------------------------

 ---------
 O2_O2_250
 ---------
 Symbolic Z-matrix:
 Charge = -2 Multiplicity = 3

                         Standard orientation:
 ---------------------------------------------------------------------
 Center     Atomic      Atomic             Coordinates (Angstroms)
 Number     Number       Type             X           Y           Z
 ---------------------------------------------------------------------
      1          8           0        0.000000    0.000000    2.562398
      2          8           0        0.000000    0.000000    3.914778
      3          8           0        0.000000    0.000000   -3.914778
      4          8           0        0.000000    0.000000   -2.562398
 ---------------------------------------------------------------------

 SCF Done:  E(UHF) =  -298.961681092     A.U. after   11 cycles
 E2 =    -0.1254117044D+01 EUMP2 =    -0.30021579813677D+03
 CCSD(T)
 CCSD(T)= -0.30013705337D+03

 The electronic state is 3-SGG.
 Alpha  occ. eigenvalues --  -20.23025 -20.23025 -20.21218 -20.21218  -1.07950
 Alpha  occ. eigenvalues --   -1.07950  -0.71581  -0.71580  -0.26481  -0.26481
 Alpha  occ. eigenvalues --   -0.26480  -0.26480  -0.20894  -0.20881  -0.05586
 Alpha  occ. eigenvalues --   -0.05586  -0.05584  -0.05584
 Alpha virt. eigenvalues --    0.70993   0.71336   1.11216   1.11728   1.12272
 Alpha virt. eigenvalues --    1.12272   1.12283   1.12283   1.16197   1.16695
 Alpha virt. eigenvalues --    1.20866   1.20866   1.20897   1.20897   1.34370

  Beta  occ. eigenvalues --  -20.19639 -20.19639 -20.18523 -20.18523  -0.99868
  Beta  occ. eigenvalues --   -0.99861  -0.60270  -0.60201  -0.18375  -0.18352
  Beta  occ. eigenvalues --   -0.12017  -0.12017  -0.11812  -0.11812   0.23470
  Beta  occ. eigenvalues --    0.23470
  Beta virt. eigenvalues --    0.32027   0.32027   0.74147   0.74551   1.13097
  Beta virt. eigenvalues --    1.13511   1.17056   1.17186   1.17186   1.17197
  Beta virt. eigenvalues --    1.17197   1.17639   1.26191   1.26191   1.26225

 Mulliken charges and spin densities:
               1          2
     1  O   -0.443267   0.574111
     2  O   -0.556733   0.425889
     3  O   -0.556733   0.425889
     4  O   -0.443267   0.574111
 Sum of Mulliken charges =  -2.00000   2.00000

 Dipole moment (field-independent basis, Debye):
    X=             -0.0000    Y=              0.0000    Z=             -0.0000  Tot=              0.0000
 Quadrupole moment (field-independent basis, Debye-Ang):
   XX=            -24.9446   YY=            -24.9446   ZZ=           -136.5113
   XY=              0.0000   XZ=              0.0000   YZ=              0.0000

 Normal termination of Gaussian 16 at Sun Jan  1 00:49:58 2023.
