 Gaussian 16, Revision A.03,
 Gaussian 16:  ES64L-G16RevA.03 25-Dec-2016

 -------------------------------------
 #p CCSD(T)/cc-pVTZ Guess=Read SCF=XQC
 -------------------------------------

 --------
 O2_O2_40
 --------
 Symbolic Z-matrix:
 Charge = -2 Multiplicity = 3

                         Standard orientation:
 ---------------------------------------------------------------------
 Center     Atomic      Atomic             Coordinates (Angstroms)
 Number     Number       Type             X           Y           Z
 ---------------------------------------------------------------------
      1          8           0        0.000000    0.000000    1.075747
      2          8           0        0.000000    0.000000    2.428127
      3          8           0        0.000000    0.000000   -2.428127
      4          8           0        0.000000    0.000000   -1.075747
 ---------------------------------------------------------------------

 SCF Done:  E(UHF) =  -298.966689334     A.U. after   12 cycles
 E2 =    -0.1049540058D+01 EUMP2 =    -0.30001622939167D+03
 CCSD(T)
 CCSD(T)= -0.30005245763D+03

 The electronic state is 3-SGG.
 Alpha  occ. eigenvalues --  -20.20228 -20.20227 -20.11634 -20.11633  -1.03213
 Alpha  occ. eigenvalues --   -1.02141  -0.66866  -0.63340  -0.22237  -0.22237
 Alpha  occ. eigenvalues --   -0.20615  -0.20615  -0.18078  -0.10387   0.00507
 Alpha  occ. eigenvalues --    0.00507   0.01970   0.01970
 Alpha virt. eigenvalues --    0.76920   0.83918   1.14124   1.14124   1.16307
 Alpha virt. eigenvalues --    1.18237   1.20263   1.20263   1.24068   1.24068
 Alpha virt. eigenvalues --    1.35342   1.37982   1.37982   1.38721   1.40646

  Beta  occ. eigenvalues --  -20.15532 -20.15526 -20.09992 -20.09992  -0.94136
  Beta  occ. eigenvalues --   -0.93148  -0.56834  -0.51160  -0.15755  -0.07148
  Beta  occ. eigenvalues --   -0.07148  -0.07076  -0.04902  -0.04902   0.23204
  Beta  occ. eigenvalues --    0.23204
  Beta virt. eigenvalues --    0.46690   0.46690   0.80678   0.87832   1.17589
  Beta virt. eigenvalues --    1.18596   1.21224   1.21224   1.24005   1.24005
  Beta virt. eigenvalues --    1.28208   1.28208   1.37351   1.39031   1.40999

 Mulliken charges and spin densities:
               1          2
     1  O   -0.284275   0.786765
     2  O   -0.715725   0.213235
     3  O   -0.715725   0.213235
     4  O   -0.284275   0.786765
 Sum of Mulliken charges =  -2.00000   2.00000

 Dipole moment (field-independent basis, Debye):
    X=             -0.0000    Y=              0.0000    Z=              0.0000  Tot=              0.0000
 Quadrupole moment (field-independent basis, Debye-Ang):
   XX=            -25.1157   YY=            -25.1157   ZZ=            -69.8145
   XY=              0.0000   XZ=              0.0000   YZ=              0.0000

 Normal termination of Gaussian 16 at Sat Dec 31 20:32:27 2022.
