 Gaussian 16, Revision A.03,
 Gaussian 16:  ES64L-G16RevA.03 25-Dec-2016

 -------------------------------------
 #p CCSD(T)/cc-pVTZ Guess=Read SCF=XQC
 -------------------------------------

 ---------
 O2_O2_139
 ---------
 Symbolic Z-matrix:
 Charge = -2 Multiplicity = 3

                         Standard orientation:
 ---------------------------------------------------------------------
 Center     Atomic      Atomic             Coordinates (Angstroms)
 Number     Number       Type             X           Y           Z
 ---------------------------------------------------------------------
      1          8           0        0.000000    0.000000    1.776597
      2          8           0        0.000000    0.000000    3.128977
      3          8           0        0.000000    0.000000   -3.128977
      4          8           0        0.000000    0.000000   -1.776597
 ---------------------------------------------------------------------

 SCF Done:  E(UHF) =  -298.953754005     A.U. after   11 cycles
 E2 =    -0.1161182319D+01 EUMP2 =    -0.30011493632440D+03
 CCSD(T)
 CCSD(T)= -0.30010366744D+03

 The electronic state is 3-SGG.
 Alpha  occ. eigenvalues --  -20.21293 -20.21293 -20.17845 -20.17845  -1.05514
 Alpha  occ. eigenvalues --   -1.05495  -0.68991  -0.68871  -0.24096  -0.24096
 Alpha  occ. eigenvalues --   -0.24041  -0.24041  -0.18492  -0.17958  -0.02992
 Alpha  occ. eigenvalues --   -0.02992  -0.02886  -0.02886
 Alpha virt. eigenvalues --    0.70829   0.76786   1.07152   1.14192   1.14192
 Alpha virt. eigenvalues --    1.15212   1.15212   1.15255   1.16542   1.22262
 Alpha virt. eigenvalues --    1.22262   1.24938   1.24938   1.35722   1.36869

  Beta  occ. eigenvalues --  -20.17596 -20.17594 -20.15437 -20.15437  -0.97334
  Beta  occ. eigenvalues --   -0.97281  -0.57776  -0.57397  -0.16004  -0.15325
  Beta  occ. eigenvalues --   -0.09699  -0.09699  -0.09158  -0.09158   0.24393
  Beta  occ. eigenvalues --    0.24393
  Beta virt. eigenvalues --    0.36549   0.36549   0.73524   0.80458   1.09458
  Beta virt. eigenvalues --    1.16382   1.17314   1.19260   1.19260   1.19944
  Beta virt. eigenvalues --    1.19944   1.27512   1.27512   1.30427   1.30427

 Mulliken charges and spin densities:
               1          2
     1  O   -0.399961   0.634088
     2  O   -0.600039   0.365912
     3  O   -0.600039   0.365912
     4  O   -0.399961   0.634088
 Sum of Mulliken charges =  -2.00000   2.00000

 Dipole moment (field-independent basis, Debye):
    X=             -0.0000    Y=              0.0000    Z=              0.0000  Tot=              0.0000
 Quadrupole moment (field-independent basis, Debye-Ang):
   XX=            -24.9764   YY=            -24.9764   ZZ=            -95.2180
   XY=              0.0000   XZ=              0.0000   YZ=              0.0000

 Normal termination of Gaussian 16 at Sat Dec 31 22:33:01 2022.
