 Gaussian 16, Revision A.03,
 Gaussian 16:  ES64L-G16RevA.03 25-Dec-2016

 -------------------------------------
 #p CCSD(T)/cc-pVTZ Guess=Read SCF=XQC
 -------------------------------------

 ---------
 O2_O2_258
 ---------
 Symbolic Z-matrix:
 Charge = -2 Multiplicity = 3

                         Standard orientation:
 ---------------------------------------------------------------------
 Center     Atomic      Atomic             Coordinates (Angstroms)
 Number     Number       Type             X           Y           Z
 ---------------------------------------------------------------------
      1          8           0        0.000000    0.000000    2.619033
      2          8           0        0.000000    0.000000    3.971413
      3          8           0        0.000000    0.000000   -3.971413
      4          8           0        0.000000    0.000000   -2.619033
 ---------------------------------------------------------------------

 SCF Done:  E(UHF) =  -298.962319312     A.U. after   11 cycles
 E2 =    -0.1260299917D+01 EUMP2 =    -0.30022261922932D+03
 CCSD(T)
 CCSD(T)= -0.30013887458D+03

 The electronic state is 3-SGG.
 Alpha  occ. eigenvalues --  -20.23138 -20.23138 -20.21393 -20.21393  -1.08090
 Alpha  occ. eigenvalues --   -1.08090  -0.71727  -0.71726  -0.26620  -0.26620
 Alpha  occ. eigenvalues --   -0.26620  -0.26620  -0.21039  -0.21030  -0.05732
 Alpha  occ. eigenvalues --   -0.05732  -0.05731  -0.05731
 Alpha virt. eigenvalues --    0.70886   0.71134   1.11139   1.11509   1.12135
 Alpha virt. eigenvalues --    1.12135   1.12142   1.12142   1.16102   1.16445
 Alpha virt. eigenvalues --    1.20727   1.20727   1.20748   1.20748   1.34232

  Beta  occ. eigenvalues --  -20.19764 -20.19763 -20.18687 -20.18687  -1.00010
  Beta  occ. eigenvalues --   -1.00003  -0.60413  -0.60349  -0.18520  -0.18502
  Beta  occ. eigenvalues --   -0.12151  -0.12151  -0.11957  -0.11957   0.23407
  Beta  occ. eigenvalues --    0.23407
  Beta virt. eigenvalues --    0.31799   0.31799   0.74048   0.74340   1.13011
  Beta virt. eigenvalues --    1.13316   1.16968   1.17051   1.17051   1.17058
  Beta virt. eigenvalues --    1.17058   1.17373   1.26051   1.26051   1.26074

 Mulliken charges and spin densities:
               1          2
     1  O   -0.445204   0.571587
     2  O   -0.554796   0.428413
     3  O   -0.554796   0.428413
     4  O   -0.445204   0.571587
 Sum of Mulliken charges =  -2.00000   2.00000

 Dipole moment (field-independent basis, Debye):
    X=             -0.0000    Y=              0.0000    Z=              0.0000  Tot=              0.0000
 Quadrupole moment (field-independent basis, Debye-Ang):
   XX=            -24.9440   YY=            -24.9440   ZZ=           -139.9751
   XY=              0.0000   XZ=              0.0000   YZ=              0.0000

 Normal termination of Gaussian 16 at Sun Jan  1 00:59:52 2023.
