 Gaussian 16, Revision A.03,
 Gaussian 16:  ES64L-G16RevA.03 25-Dec-2016

 -------------------------------------
 #p CCSD(T)/cc-pVTZ Guess=Read SCF=XQC
 -------------------------------------

 --------
 O2_O2_37
 --------
 Symbolic Z-matrix:
 Charge = -2 Multiplicity = 3

                         Standard orientation:
 ---------------------------------------------------------------------
 Center     Atomic      Atomic             Coordinates (Angstroms)
 Number     Number       Type             X           Y           Z
 ---------------------------------------------------------------------
      1          8           0        0.000000    0.000000    1.054510
      2          8           0        0.000000    0.000000    2.406890
      3          8           0        0.000000    0.000000   -2.406890
      4          8           0        0.000000    0.000000   -1.054510
 ---------------------------------------------------------------------

 SCF Done:  E(UHF) =  -298.966666624     A.U. after   12 cycles
 E2 =    -0.1046183044D+01 EUMP2 =    -0.30001284966839D+03
 CCSD(T)
 CCSD(T)= -0.30004971788D+03

 The electronic state is 3-SGG.
 Alpha  occ. eigenvalues --  -20.20170 -20.20169 -20.11341 -20.11341  -1.03190
 Alpha  occ. eigenvalues --   -1.01972  -0.66912  -0.63005  -0.22241  -0.22241
 Alpha  occ. eigenvalues --   -0.20438  -0.20438  -0.18217  -0.09864   0.00646
 Alpha  occ. eigenvalues --    0.00646   0.02223   0.02223
 Alpha virt. eigenvalues --    0.77110   0.84240   1.14296   1.14296   1.16380
 Alpha virt. eigenvalues --    1.18260   1.20451   1.20451   1.24288   1.24288
 Alpha virt. eigenvalues --    1.36522   1.38419   1.38419   1.38751   1.41176

  Beta  occ. eigenvalues --  -20.15435 -20.15429 -20.09733 -20.09733  -0.94051
  Beta  occ. eigenvalues --   -0.92953  -0.57012  -0.50791  -0.15879  -0.07086
  Beta  occ. eigenvalues --   -0.07086  -0.06508  -0.04711  -0.04711   0.23042
  Beta  occ. eigenvalues --    0.23042
  Beta virt. eigenvalues --    0.47215   0.47215   0.80905   0.88151   1.17695
  Beta virt. eigenvalues --    1.18604   1.21440   1.21440   1.24152   1.24152
  Beta virt. eigenvalues --    1.28439   1.28439   1.38416   1.39049   1.41562

 Mulliken charges and spin densities:
               1          2
     1  O   -0.277918   0.793225
     2  O   -0.722082   0.206775
     3  O   -0.722082   0.206775
     4  O   -0.277918   0.793225
 Sum of Mulliken charges =  -2.00000   2.00000

 Dipole moment (field-independent basis, Debye):
    X=             -0.0000    Y=              0.0000    Z=              0.0000  Tot=              0.0000
 Quadrupole moment (field-independent basis, Debye-Ang):
   XX=            -25.1179   YY=            -25.1179   ZZ=            -69.2590
   XY=              0.0000   XZ=              0.0000   YZ=              0.0000

 Normal termination of Gaussian 16 at Sat Dec 31 20:28:52 2022.
