 Gaussian 16, Revision A.03,
 Gaussian 16:  ES64L-G16RevA.03 25-Dec-2016

 -------------------------------------
 #p CCSD(T)/cc-pVTZ Guess=Read SCF=XQC
 -------------------------------------

 --------
 O2_O2_98
 --------
 Symbolic Z-matrix:
 Charge = -2 Multiplicity = 3

                         Standard orientation:
 ---------------------------------------------------------------------
 Center     Atomic      Atomic             Coordinates (Angstroms)
 Number     Number       Type             X           Y           Z
 ---------------------------------------------------------------------
      1          8           0        0.000000    0.000000    1.486346
      2          8           0        0.000000    0.000000    2.838726
      3          8           0        0.000000    0.000000   -2.838726
      4          8           0        0.000000    0.000000   -1.486346
 ---------------------------------------------------------------------

 SCF Done:  E(UHF) =  -298.955432171     A.U. after   11 cycles
 E2 =    -0.1118688457D+01 EUMP2 =    -0.30007412062752D+03
 CCSD(T)
 CCSD(T)= -0.30008622399D+03

 The electronic state is 3-SGG.
 Alpha  occ. eigenvalues --  -20.20809 -20.20809 -20.15870 -20.15870  -1.04451
 Alpha  occ. eigenvalues --   -1.04353  -0.67829  -0.67337  -0.23120  -0.23120
 Alpha  occ. eigenvalues --   -0.22895  -0.22895  -0.17682  -0.16066  -0.01739
 Alpha  occ. eigenvalues --   -0.01739  -0.01400  -0.01400
 Alpha virt. eigenvalues --    0.72665   0.79402   1.10730   1.14008   1.14008
 Alpha virt. eigenvalues --    1.15629   1.17072   1.17072   1.17615   1.22126
 Alpha virt. eigenvalues --    1.22126   1.29166   1.29166   1.37658   1.38097

  Beta  occ. eigenvalues --  -20.16815 -20.16813 -20.13689 -20.13689  -0.96086
  Beta  occ. eigenvalues --   -0.95928  -0.56737  -0.55686  -0.15256  -0.13276
  Beta  occ. eigenvalues --   -0.08635  -0.08635  -0.07733  -0.07733   0.24485
  Beta  occ. eigenvalues --    0.24485
  Beta virt. eigenvalues --    0.39486   0.39486   0.75590   0.83229   1.12771
  Beta virt. eigenvalues --    1.16726   1.18488   1.19669   1.19669   1.21506
  Beta virt. eigenvalues --    1.21506   1.26974   1.26974   1.34935   1.34935

 Mulliken charges and spin densities:
               1          2
     1  O   -0.368026   0.680495
     2  O   -0.631974   0.319505
     3  O   -0.631974   0.319505
     4  O   -0.368026   0.680495
 Sum of Mulliken charges =  -2.00000   2.00000

 Dipole moment (field-independent basis, Debye):
    X=             -0.0000    Y=              0.0000    Z=              0.0000  Tot=              0.0000
 Quadrupole moment (field-independent basis, Debye-Ang):
   XX=            -25.0204   YY=            -25.0204   ZZ=            -83.2831
   XY=              0.0000   XZ=              0.0000   YZ=              0.0000

 Normal termination of Gaussian 16 at Sat Dec 31 21:42:01 2022.
