 Gaussian 16, Revision A.03,
 Gaussian 16:  ES64L-G16RevA.03 25-Dec-2016

 -------------------------------------
 #p CCSD(T)/cc-pVTZ Guess=Read SCF=XQC
 -------------------------------------

 --------
 O2_O2_14
 --------
 Symbolic Z-matrix:
 Charge = -2 Multiplicity = 3

                         Standard orientation:
 ---------------------------------------------------------------------
 Center     Atomic      Atomic             Coordinates (Angstroms)
 Number     Number       Type             X           Y           Z
 ---------------------------------------------------------------------
      1          8           0        0.000000    0.000000    0.891685
      2          8           0        0.000000    0.000000    2.244066
      3          8           0        0.000000    0.000000   -2.244066
      4          8           0        0.000000    0.000000   -0.891685
 ---------------------------------------------------------------------

 SCF Done:  E(UHF) =  -298.950170822     A.U. after   12 cycles
 E2 =    -0.1025725113D+01 EUMP2 =    -0.29997589593422D+03
 CCSD(T)
 CCSD(T)= -0.30001443644D+03

 The electronic state is 3-SGG.
 Alpha  occ. eigenvalues --  -20.19556 -20.19554 -20.08669 -20.08668  -1.03621
 Alpha  occ. eigenvalues --   -1.00278  -0.68224  -0.59650  -0.22820  -0.22820
 Alpha  occ. eigenvalues --   -0.19923  -0.18672  -0.18672  -0.04145   0.01807
 Alpha  occ. eigenvalues --    0.01807   0.04600   0.04600
 Alpha virt. eigenvalues --    0.78392   0.87471   1.16062   1.16062   1.17126
 Alpha virt. eigenvalues --    1.18309   1.22053   1.22053   1.26542   1.26542
 Alpha virt. eigenvalues --    1.38535   1.38795   1.41447   1.41447   1.49828

  Beta  occ. eigenvalues --  -20.14553 -20.14541 -20.07325 -20.07325  -0.93793
  Beta  occ. eigenvalues --   -0.91173  -0.59906  -0.47225  -0.17200  -0.06878
  Beta  occ. eigenvalues --   -0.06878  -0.02966  -0.02966  -0.00320   0.21222
  Beta  occ. eigenvalues --    0.21222
  Beta virt. eigenvalues --    0.51901   0.51901   0.82410   0.91279   1.18447
  Beta virt. eigenvalues --    1.18959   1.23201   1.23201   1.25443   1.25443
  Beta virt. eigenvalues --    1.30997   1.30997   1.38943   1.39586   1.47661

 Mulliken charges and spin densities:
               1          2
     1  O   -0.218870   0.840099
     2  O   -0.781130   0.159901
     3  O   -0.781130   0.159901
     4  O   -0.218870   0.840099
 Sum of Mulliken charges =  -2.00000   2.00000

 Dipole moment (field-independent basis, Debye):
    X=             -0.0000    Y=             -0.0000    Z=              0.0000  Tot=              0.0000
 Quadrupole moment (field-independent basis, Debye-Ang):
   XX=            -25.0892   YY=            -25.0892   ZZ=            -65.7322
   XY=              0.0000   XZ=              0.0000   YZ=              0.0000

 Normal termination of Gaussian 16 at Sat Dec 31 20:02:06 2022.
