 Gaussian 16, Revision A.03,
 Gaussian 16:  ES64L-G16RevA.03 25-Dec-2016

 -------------------------------------
 #p CCSD(T)/cc-pVTZ Guess=Read SCF=XQC
 -------------------------------------

 ---------
 O2_O2_128
 ---------
 Symbolic Z-matrix:
 Charge = -2 Multiplicity = 3

                         Standard orientation:
 ---------------------------------------------------------------------
 Center     Atomic      Atomic             Coordinates (Angstroms)
 Number     Number       Type             X           Y           Z
 ---------------------------------------------------------------------
      1          8           0        0.000000    0.000000    1.698725
      2          8           0        0.000000    0.000000    3.051105
      3          8           0        0.000000    0.000000   -3.051105
      4          8           0        0.000000    0.000000   -1.698725
 ---------------------------------------------------------------------

 SCF Done:  E(UHF) =  -298.953671611     A.U. after   11 cycles
 E2 =    -0.1150459072D+01 EUMP2 =    -0.30010413068295D+03
 CCSD(T)
 CCSD(T)= -0.30009930517D+03

 The electronic state is 3-SGG.
 Alpha  occ. eigenvalues --  -20.21143 -20.21143 -20.17371 -20.17371  -1.05231
 Alpha  occ. eigenvalues --   -1.05202  -0.68682  -0.68506  -0.23829  -0.23829
 Alpha  occ. eigenvalues --   -0.23748  -0.23748  -0.18247  -0.17526  -0.02674
 Alpha  occ. eigenvalues --   -0.02674  -0.02527  -0.02527
 Alpha virt. eigenvalues --    0.71048   0.77492   1.07192   1.14250   1.14250
 Alpha virt. eigenvalues --    1.15414   1.15667   1.15667   1.16764   1.22220
 Alpha virt. eigenvalues --    1.22220   1.25834   1.25834   1.36900   1.37183

  Beta  occ. eigenvalues --  -20.17382 -20.17380 -20.15015 -20.15014  -0.97017
  Beta  occ. eigenvalues --   -0.96947  -0.57487  -0.56998  -0.15770  -0.14862
  Beta  occ. eigenvalues --   -0.09422  -0.09422  -0.08807  -0.08807   0.24451
  Beta  occ. eigenvalues --    0.24451
  Beta virt. eigenvalues --    0.37228   0.37228   0.73744   0.81215   1.09490
  Beta virt. eigenvalues --    1.16524   1.17547   1.19415   1.19415   1.20338
  Beta virt. eigenvalues --    1.20338   1.27407   1.27407   1.31380   1.31380

 Mulliken charges and spin densities:
               1          2
     1  O   -0.392769   0.644541
     2  O   -0.607231   0.355459
     3  O   -0.607231   0.355459
     4  O   -0.392769   0.644541
 Sum of Mulliken charges =  -2.00000   2.00000

 Dipole moment (field-independent basis, Debye):
    X=             -0.0000    Y=              0.0000    Z=             -0.0000  Tot=              0.0000
 Quadrupole moment (field-independent basis, Debye-Ang):
   XX=            -24.9854   YY=            -24.9854   ZZ=            -91.8347
   XY=              0.0000   XZ=              0.0000   YZ=              0.0000

 Normal termination of Gaussian 16 at Sat Dec 31 22:18:43 2022.
