 Gaussian 16, Revision A.03,
 Gaussian 16:  ES64L-G16RevA.03 25-Dec-2016

 -------------------------------------
 #p CCSD(T)/cc-pVTZ Guess=Read SCF=XQC
 -------------------------------------

 ---------
 O2_O2_256
 ---------
 Symbolic Z-matrix:
 Charge = -2 Multiplicity = 3

                         Standard orientation:
 ---------------------------------------------------------------------
 Center     Atomic      Atomic             Coordinates (Angstroms)
 Number     Number       Type             X           Y           Z
 ---------------------------------------------------------------------
      1          8           0        0.000000    0.000000    2.604874
      2          8           0        0.000000    0.000000    3.957254
      3          8           0        0.000000    0.000000   -3.957254
      4          8           0        0.000000    0.000000   -2.604874
 ---------------------------------------------------------------------

 SCF Done:  E(UHF) =  -298.962161052     A.U. after   11 cycles
 E2 =    -0.1258756843D+01 EUMP2 =    -0.30022091789466D+03
 CCSD(T)
 CCSD(T)= -0.30013842511D+03

 The electronic state is 3-SGG.
 Alpha  occ. eigenvalues --  -20.23110 -20.23110 -20.21350 -20.21350  -1.08055
 Alpha  occ. eigenvalues --   -1.08055  -0.71691  -0.71690  -0.26586  -0.26586
 Alpha  occ. eigenvalues --   -0.26585  -0.26585  -0.21003  -0.20993  -0.05696
 Alpha  occ. eigenvalues --   -0.05696  -0.05695  -0.05695
 Alpha virt. eigenvalues --    0.70914   0.71183   1.11160   1.11562   1.12169
 Alpha virt. eigenvalues --    1.12169   1.12177   1.12177   1.16127   1.16504
 Alpha virt. eigenvalues --    1.20761   1.20761   1.20785   1.20785   1.34266

  Beta  occ. eigenvalues --  -20.19733 -20.19733 -20.18646 -20.18646  -0.99975
  Beta  occ. eigenvalues --   -0.99968  -0.60378  -0.60312  -0.18484  -0.18465
  Beta  occ. eigenvalues --   -0.12118  -0.12118  -0.11921  -0.11921   0.23422
  Beta  occ. eigenvalues --    0.23422
  Beta virt. eigenvalues --    0.31855   0.31855   0.74074   0.74390   1.13034
  Beta virt. eigenvalues --    1.13363   1.16991   1.17084   1.17084   1.17092
  Beta virt. eigenvalues --    1.17092   1.17436   1.26085   1.26085   1.26111

 Mulliken charges and spin densities:
               1          2
     1  O   -0.444730   0.572205
     2  O   -0.555270   0.427795
     3  O   -0.555270   0.427795
     4  O   -0.444730   0.572205
 Sum of Mulliken charges =  -2.00000   2.00000

 Dipole moment (field-independent basis, Debye):
    X=             -0.0000    Y=              0.0000    Z=              0.0000  Tot=              0.0000
 Quadrupole moment (field-independent basis, Debye-Ang):
   XX=            -24.9441   YY=            -24.9441   ZZ=           -139.1031
   XY=              0.0000   XZ=              0.0000   YZ=              0.0000

 Normal termination of Gaussian 16 at Sun Jan  1 00:57:24 2023.
