 Gaussian 16, Revision A.03,
 Gaussian 16:  ES64L-G16RevA.03 25-Dec-2016

 -------------------------------------
 #p CCSD(T)/cc-pVTZ Guess=Read SCF=XQC
 -------------------------------------

 ---------
 O2_O2_293
 ---------
 Symbolic Z-matrix:
 Charge = -2 Multiplicity = 3

                         Standard orientation:
 ---------------------------------------------------------------------
 Center     Atomic      Atomic             Coordinates (Angstroms)
 Number     Number       Type             X           Y           Z
 ---------------------------------------------------------------------
      1          8           0        0.000000    0.000000    2.866808
      2          8           0        0.000000    0.000000    4.219188
      3          8           0        0.000000    0.000000   -4.219188
      4          8           0        0.000000    0.000000   -2.866808
 ---------------------------------------------------------------------

 SCF Done:  E(UHF) =  -298.964938699     A.U. after   10 cycles
 E2 =    -0.1287083340D+01 EUMP2 =    -0.30025202203892D+03
 CCSD(T)
 CCSD(T)= -0.30014616441D+03

 The electronic state is 3-SGG.
 Alpha  occ. eigenvalues --  -20.23597 -20.23597 -20.22090 -20.22090  -1.08654
 Alpha  occ. eigenvalues --   -1.08654  -0.72313  -0.72313  -0.27180  -0.27180
 Alpha  occ. eigenvalues --   -0.27180  -0.27180  -0.21623  -0.21621  -0.06316
 Alpha  occ. eigenvalues --   -0.06316  -0.06316  -0.06316
 Alpha virt. eigenvalues --    0.70369   0.70420   1.10680   1.10755   1.11579
 Alpha virt. eigenvalues --    1.11579   1.11580   1.11580   1.15585   1.15644
 Alpha virt. eigenvalues --    1.20160   1.20160   1.20163   1.20163   1.33679

  Beta  occ. eigenvalues --  -20.20267 -20.20267 -20.19338 -20.19337  -1.00578
  Beta  occ. eigenvalues --   -1.00574  -0.60986  -0.60937  -0.19105  -0.19097
  Beta  occ. eigenvalues --   -0.12690  -0.12690  -0.12535  -0.12535   0.23145
  Beta  occ. eigenvalues --    0.23145
  Beta virt. eigenvalues --    0.30893   0.30893   0.73544   0.73605   1.12546
  Beta virt. eigenvalues --    1.12617   1.16458   1.16502   1.16502   1.16504
  Beta virt. eigenvalues --    1.16504   1.16533   1.25478   1.25478   1.25483

 Mulliken charges and spin densities:
               1          2
     1  O   -0.452616   0.561964
     2  O   -0.547384   0.438036
     3  O   -0.547384   0.438036
     4  O   -0.452616   0.561964
 Sum of Mulliken charges =  -2.00000   2.00000

 Dipole moment (field-independent basis, Debye):
    X=             -0.0000    Y=             -0.0000    Z=             -0.0000  Tot=              0.0000
 Quadrupole moment (field-independent basis, Debye-Ang):
   XX=            -24.9419   YY=            -24.9419   ZZ=           -155.8866
   XY=              0.0000   XZ=              0.0000   YZ=              0.0000

 Normal termination of Gaussian 16 at Sun Jan  1 01:42:11 2023.
