 Gaussian 16, Revision A.03,
 Gaussian 16:  ES64L-G16RevA.03 25-Dec-2016

 -------------------------------------
 #p CCSD(T)/cc-pVTZ Guess=Read SCF=XQC
 -------------------------------------

 ---------
 O2_O2_117
 ---------
 Symbolic Z-matrix:
 Charge = -2 Multiplicity = 3

                         Standard orientation:
 ---------------------------------------------------------------------
 Center     Atomic      Atomic             Coordinates (Angstroms)
 Number     Number       Type             X           Y           Z
 ---------------------------------------------------------------------
      1          8           0        0.000000    0.000000    1.620853
      2          8           0        0.000000    0.000000    2.973233
      3          8           0        0.000000    0.000000   -2.973233
      4          8           0        0.000000    0.000000   -1.620853
 ---------------------------------------------------------------------

 SCF Done:  E(UHF) =  -298.953930785     A.U. after   11 cycles
 E2 =    -0.1139259872D+01 EUMP2 =    -0.30009319065695D+03
 CCSD(T)
 CCSD(T)= -0.30009471132D+03

 The electronic state is 3-SGG.
 Alpha  occ. eigenvalues --  -20.21007 -20.21006 -20.16859 -20.16859  -1.04945
 Alpha  occ. eigenvalues --   -1.04900  -0.68369  -0.68112  -0.23564  -0.23564
 Alpha  occ. eigenvalues --   -0.23445  -0.23445  -0.18017  -0.17046  -0.02343
 Alpha  occ. eigenvalues --   -0.02343  -0.02142  -0.02142
 Alpha virt. eigenvalues --    0.71480   0.78192   1.07848   1.14233   1.14233
 Alpha virt. eigenvalues --    1.15527   1.16157   1.16157   1.17034   1.22161
 Alpha virt. eigenvalues --    1.22161   1.26899   1.26899   1.37200   1.37508

  Beta  occ. eigenvalues --  -20.17171 -20.17169 -20.14560 -20.14560  -0.96687
  Beta  occ. eigenvalues --   -0.96593  -0.57201  -0.56561  -0.15555  -0.14343
  Beta  occ. eigenvalues --   -0.09138  -0.09138  -0.08435  -0.08435   0.24490
  Beta  occ. eigenvalues --    0.24490
  Beta virt. eigenvalues --    0.37979   0.37979   0.74221   0.81959   1.10100
  Beta virt. eigenvalues --    1.16627   1.17830   1.19537   1.19537   1.20753
  Beta virt. eigenvalues --    1.20753   1.27254   1.27254   1.32517   1.32517

 Mulliken charges and spin densities:
               1          2
     1  O   -0.384666   0.656355
     2  O   -0.615334   0.343645
     3  O   -0.615334   0.343645
     4  O   -0.384666   0.656355
 Sum of Mulliken charges =  -2.00000   2.00000

 Dipole moment (field-independent basis, Debye):
    X=             -0.0000    Y=              0.0000    Z=              0.0000  Tot=              0.0000
 Quadrupole moment (field-independent basis, Debye-Ang):
   XX=            -24.9963   YY=            -24.9963   ZZ=            -88.5840
   XY=              0.0000   XZ=              0.0000   YZ=              0.0000

 Normal termination of Gaussian 16 at Sat Dec 31 22:05:03 2022.
