 Gaussian 16, Revision A.03,
 Gaussian 16:  ES64L-G16RevA.03 25-Dec-2016

 -------------------------------------
 #p CCSD(T)/cc-pVTZ Guess=Read SCF=XQC
 -------------------------------------

 --------
 O2_O2_10
 --------
 Symbolic Z-matrix:
 Charge = -2 Multiplicity = 3

                         Standard orientation:
 ---------------------------------------------------------------------
 Center     Atomic      Atomic             Coordinates (Angstroms)
 Number     Number       Type             X           Y           Z
 ---------------------------------------------------------------------
      1          8           0        0.000000    0.000000    0.863368
      2          8           0        0.000000    0.000000    2.215749
      3          8           0        0.000000    0.000000   -2.215749
      4          8           0        0.000000    0.000000   -0.863368
 ---------------------------------------------------------------------

 SCF Done:  E(UHF) =  -298.941794949     A.U. after   11 cycles
 E2 =    -0.1023772132D+01 EUMP2 =    -0.29996556708039D+03
 CCSD(T)
 CCSD(T)= -0.30000366246D+03

 The electronic state is 3-SGG.
 Alpha  occ. eigenvalues --  -20.19438 -20.19436 -20.08102 -20.08101  -1.03914
 Alpha  occ. eigenvalues --   -0.99894  -0.68707  -0.58895  -0.23100  -0.23100
 Alpha  occ. eigenvalues --   -0.20341  -0.18276  -0.18276  -0.02716   0.02027
 Alpha  occ. eigenvalues --    0.02027   0.05109   0.05109
 Alpha virt. eigenvalues --    0.78549   0.88240   1.16372   1.16372   1.17320
 Alpha virt. eigenvalues --    1.18249   1.22371   1.22371   1.27051   1.27051
 Alpha virt. eigenvalues --    1.38385   1.38760   1.41900   1.41900   1.51243

  Beta  occ. eigenvalues --  -20.14398 -20.14385 -20.06802 -20.06802  -0.93907
  Beta  occ. eigenvalues --   -0.90804  -0.60798  -0.46451  -0.17482  -0.06939
  Beta  occ. eigenvalues --   -0.06939  -0.02595  -0.02595   0.01222   0.20779
  Beta  occ. eigenvalues --    0.20779
  Beta virt. eigenvalues --    0.52841   0.52841   0.82582   0.92005   1.18337
  Beta virt. eigenvalues --    1.19318   1.23447   1.23447   1.25711   1.25711
  Beta virt. eigenvalues --    1.31554   1.31554   1.38868   1.39424   1.48121

 Mulliken charges and spin densities:
               1          2
     1  O   -0.205676   0.846902
     2  O   -0.794324   0.153098
     3  O   -0.794324   0.153098
     4  O   -0.205676   0.846902
 Sum of Mulliken charges =  -2.00000   2.00000

 Dipole moment (field-independent basis, Debye):
    X=             -0.0000    Y=              0.0000    Z=             -0.0000  Tot=              0.0000
 Quadrupole moment (field-independent basis, Debye-Ang):
   XX=            -25.0713   YY=            -25.0713   ZZ=            -65.2904
   XY=              0.0000   XZ=              0.0000   YZ=              0.0000

 Normal termination of Gaussian 16 at Sat Dec 31 19:57:35 2022.
