 Gaussian 16, Revision A.03,
 Gaussian 16:  ES64L-G16RevA.03 25-Dec-2016

 -------------------------------------
 #p CCSD(T)/cc-pVTZ Guess=Read SCF=XQC
 -------------------------------------

 --------
 O2_O2_62
 --------
 Symbolic Z-matrix:
 Charge = -2 Multiplicity = 3

                         Standard orientation:
 ---------------------------------------------------------------------
 Center     Atomic      Atomic             Coordinates (Angstroms)
 Number     Number       Type             X           Y           Z
 ---------------------------------------------------------------------
      1          8           0        0.000000    0.000000    1.231492
      2          8           0        0.000000    0.000000    2.583872
      3          8           0        0.000000    0.000000   -2.583872
      4          8           0        0.000000    0.000000   -1.231492
 ---------------------------------------------------------------------

 SCF Done:  E(UHF) =  -298.962596355     A.U. after   12 cycles
 E2 =    -0.1075889951D+01 EUMP2 =    -0.30003848630677D+03
 CCSD(T)
 CCSD(T)= -0.30006778097D+03

 The electronic state is 3-SGG.
 Alpha  occ. eigenvalues --  -20.20514 -20.20514 -20.13513 -20.13513  -1.03578
 Alpha  occ. eigenvalues --   -1.03151  -0.66967  -0.65298  -0.22427  -0.22427
 Alpha  occ. eigenvalues --   -0.21667  -0.21667  -0.17522  -0.13294  -0.00436
 Alpha  occ. eigenvalues --   -0.00436   0.00413   0.00413
 Alpha virt. eigenvalues --    0.75429   0.81929   1.13507   1.13507   1.15872
 Alpha virt. eigenvalues --    1.17824   1.18978   1.18978   1.22860   1.22860
 Alpha virt. eigenvalues --    1.24326   1.34591   1.34591   1.38404   1.39303

  Beta  occ. eigenvalues --  -20.16111 -20.16107 -20.11637 -20.11637  -0.94861
  Beta  occ. eigenvalues --   -0.94388  -0.56279  -0.53355  -0.15197  -0.10243
  Beta  occ. eigenvalues --   -0.07675  -0.07675  -0.06137  -0.06137   0.24027
  Beta  occ. eigenvalues --    0.24027
  Beta virt. eigenvalues --    0.43368   0.43368   0.78884   0.85831   1.17021
  Beta virt. eigenvalues --    1.18254   1.20112   1.20112   1.23007   1.23007
  Beta virt. eigenvalues --    1.26485   1.27135   1.27135   1.38771   1.39826

 Mulliken charges and spin densities:
               1          2
     1  O   -0.323876   0.741168
     2  O   -0.676124   0.258832
     3  O   -0.676124   0.258832
     4  O   -0.323876   0.741168
 Sum of Mulliken charges =  -2.00000   2.00000

 Dipole moment (field-independent basis, Debye):
    X=             -0.0000    Y=              0.0000    Z=              0.0000  Tot=              0.0000
 Quadrupole moment (field-independent basis, Debye-Ang):
   XX=            -25.0823   YY=            -25.0823   ZZ=            -74.3787
   XY=              0.0000   XZ=              0.0000   YZ=              0.0000

 Normal termination of Gaussian 16 at Sat Dec 31 20:58:48 2022.
