 Gaussian 16, Revision A.03,
 Gaussian 16:  ES64L-G16RevA.03 25-Dec-2016

 -------------------------------------
 #p CCSD(T)/cc-pVTZ Guess=Read SCF=XQC
 -------------------------------------

 --------
 O2_O2_56
 --------
 Symbolic Z-matrix:
 Charge = -2 Multiplicity = 3

                         Standard orientation:
 ---------------------------------------------------------------------
 Center     Atomic      Atomic             Coordinates (Angstroms)
 Number     Number       Type             X           Y           Z
 ---------------------------------------------------------------------
      1          8           0        0.000000    0.000000    1.189016
      2          8           0        0.000000    0.000000    2.541396
      3          8           0        0.000000    0.000000   -2.541396
      4          8           0        0.000000    0.000000   -1.189016
 ---------------------------------------------------------------------

 SCF Done:  E(UHF) =  -298.964078562     A.U. after   12 cycles
 E2 =    -0.1068540114D+01 EUMP2 =    -0.30003261867647D+03
 CCSD(T)
 CCSD(T)= -0.30006415558D+03

 The electronic state is 3-SGG.
 Alpha  occ. eigenvalues --  -20.20454 -20.20454 -20.13042 -20.13042  -1.03455
 Alpha  occ. eigenvalues --   -1.02908  -0.66883  -0.64838  -0.22348  -0.22348
 Alpha  occ. eigenvalues --   -0.21415  -0.21415  -0.17605  -0.12633  -0.00192
 Alpha  occ. eigenvalues --   -0.00192   0.00793   0.00793
 Alpha virt. eigenvalues --    0.75856   0.82420   1.13567   1.13567   1.15970
 Alpha virt. eigenvalues --    1.18008   1.19316   1.19316   1.23124   1.23124
 Alpha virt. eigenvalues --    1.27264   1.35540   1.35540   1.38505   1.39535

  Beta  occ. eigenvalues --  -20.15972 -20.15968 -20.11226 -20.11226  -0.94655
  Beta  occ. eigenvalues --   -0.94079  -0.56328  -0.52833  -0.15292  -0.09521
  Beta  occ. eigenvalues --   -0.07522  -0.07522  -0.05825  -0.05825   0.23857
  Beta  occ. eigenvalues --    0.23857
  Beta virt. eigenvalues --    0.44189   0.44189   0.79398   0.86330   1.17142
  Beta virt. eigenvalues --    1.18419   1.20327   1.20327   1.23269   1.23269
  Beta virt. eigenvalues --    1.27332   1.27332   1.29394   1.38859   1.40032

 Mulliken charges and spin densities:
               1          2
     1  O   -0.314257   0.753124
     2  O   -0.685743   0.246876
     3  O   -0.685743   0.246876
     4  O   -0.314257   0.753124
 Sum of Mulliken charges =  -2.00000   2.00000

 Dipole moment (field-independent basis, Debye):
    X=             -0.0000    Y=              0.0000    Z=              0.0000  Tot=              0.0000
 Quadrupole moment (field-independent basis, Debye-Ang):
   XX=            -25.0931   YY=            -25.0931   ZZ=            -73.0568
   XY=              0.0000   XZ=              0.0000   YZ=              0.0000

 42513\PMP3-0=-299.9968232\MP4SDQ=-299.99336\CCSD=-299.9848632\CCSD(T)=
 Normal termination of Gaussian 16 at Sat Dec 31 20:51:33 2022.
