 Gaussian 16, Revision A.03,
 Gaussian 16:  ES64L-G16RevA.03 25-Dec-2016

 -------------------------------------
 #p CCSD(T)/cc-pVTZ Guess=Read SCF=XQC
 -------------------------------------

 ---------
 O2_O2_277
 ---------
 Symbolic Z-matrix:
 Charge = -2 Multiplicity = 3

                         Standard orientation:
 ---------------------------------------------------------------------
 Center     Atomic      Atomic             Coordinates (Angstroms)
 Number     Number       Type             X           Y           Z
 ---------------------------------------------------------------------
      1          8           0        0.000000    0.000000    2.753539
      2          8           0        0.000000    0.000000    4.105919
      3          8           0        0.000000    0.000000   -4.105919
      4          8           0        0.000000    0.000000   -2.753539
 ---------------------------------------------------------------------

 SCF Done:  E(UHF) =  -298.963777142     A.U. after   11 cycles
 E2 =    -0.1274885171D+01 EUMP2 =    -0.30023866231299D+03
 CCSD(T)
 CCSD(T)= -0.30014296178D+03

 The electronic state is 3-SGG.
 Alpha  occ. eigenvalues --  -20.23394 -20.23394 -20.21785 -20.21785  -1.08406
 Alpha  occ. eigenvalues --   -1.08406  -0.72056  -0.72055  -0.26934  -0.26934
 Alpha  occ. eigenvalues --   -0.26934  -0.26934  -0.21366  -0.21362  -0.06059
 Alpha  occ. eigenvalues --   -0.06059  -0.06059  -0.06059
 Alpha virt. eigenvalues --    0.70610   0.70718   1.10905   1.11066   1.11824
 Alpha virt. eigenvalues --    1.11824   1.11827   1.11827   1.15832   1.15968
 Alpha virt. eigenvalues --    1.20411   1.20411   1.20418   1.20418   1.33923

  Beta  occ. eigenvalues --  -20.20045 -20.20045 -20.19052 -20.19052  -1.00328
  Beta  occ. eigenvalues --   -1.00323  -0.60734  -0.60679  -0.18847  -0.18837
  Beta  occ. eigenvalues --   -0.12453  -0.12453  -0.12281  -0.12281   0.23261
  Beta  occ. eigenvalues --    0.23261
  Beta virt. eigenvalues --    0.31289   0.31289   0.73782   0.73910   1.12769
  Beta virt. eigenvalues --    1.12909   1.16705   1.16744   1.16744   1.16747
  Beta virt. eigenvalues --    1.16747   1.16870   1.25731   1.25731   1.25740

 Mulliken charges and spin densities:
               1          2
     1  O   -0.449426   0.566102
     2  O   -0.550574   0.433898
     3  O   -0.550574   0.433898
     4  O   -0.449426   0.566102
 Sum of Mulliken charges =  -2.00000   2.00000

 Dipole moment (field-independent basis, Debye):
    X=             -0.0000    Y=              0.0000    Z=             -0.0000  Tot=              0.0000
 Quadrupole moment (field-independent basis, Debye-Ang):
   XX=            -24.9427   YY=            -24.9427   ZZ=           -148.4601
   XY=              0.0000   XZ=              0.0000   YZ=              0.0000

 Normal termination of Gaussian 16 at Sun Jan  1 01:23:08 2023.
