 Gaussian 16, Revision A.03,
 Gaussian 16:  ES64L-G16RevA.03 25-Dec-2016

 -------------------------------------
 #p CCSD(T)/cc-pVTZ Guess=Read SCF=XQC
 -------------------------------------

 ---------
 O2_O2_112
 ---------
 Symbolic Z-matrix:
 Charge = -2 Multiplicity = 3

                         Standard orientation:
 ---------------------------------------------------------------------
 Center     Atomic      Atomic             Coordinates (Angstroms)
 Number     Number       Type             X           Y           Z
 ---------------------------------------------------------------------
      1          8           0        0.000000    0.000000    1.585456
      2          8           0        0.000000    0.000000    2.937836
      3          8           0        0.000000    0.000000   -2.937836
      4          8           0        0.000000    0.000000   -1.585456
 ---------------------------------------------------------------------

 SCF Done:  E(UHF) =  -298.954184497     A.U. after   11 cycles
 E2 =    -0.1134000187D+01 EUMP2 =    -0.30008818468427D+03
 CCSD(T)
 CCSD(T)= -0.30009254636D+03

 The electronic state is 3-SGG.
 Alpha  occ. eigenvalues --  -20.20950 -20.20950 -20.16613 -20.16613  -1.04815
 Alpha  occ. eigenvalues --   -1.04759  -0.68226  -0.67921  -0.23444  -0.23444
 Alpha  occ. eigenvalues --   -0.23304  -0.23304  -0.17920  -0.16809  -0.02188
 Alpha  occ. eigenvalues --   -0.02188  -0.01957  -0.01957
 Alpha virt. eigenvalues --    0.71744   0.78509   1.08380   1.14197   1.14197
 Alpha virt. eigenvalues --    1.15564   1.16390   1.16390   1.17172   1.22138
 Alpha virt. eigenvalues --    1.22138   1.27443   1.27443   1.37325   1.37660

  Beta  occ. eigenvalues --  -20.17076 -20.17075 -20.14343 -20.14342  -0.96532
  Beta  occ. eigenvalues --   -0.96426  -0.57074  -0.56347  -0.15465  -0.14086
  Beta  occ. eigenvalues --   -0.09007  -0.09007  -0.08258  -0.08258   0.24498
  Beta  occ. eigenvalues --    0.24498
  Beta virt. eigenvalues --    0.38347   0.38347   0.74522   0.82294   1.10596
  Beta virt. eigenvalues --    1.16661   1.17977   1.19581   1.19581   1.20948
  Beta virt. eigenvalues --    1.20948   1.27177   1.27177   1.33097   1.33097

 Mulliken charges and spin densities:
               1          2
     1  O   -0.380638   0.662224
     2  O   -0.619362   0.337776
     3  O   -0.619362   0.337776
     4  O   -0.380638   0.662224
 Sum of Mulliken charges =  -2.00000   2.00000

 Dipole moment (field-independent basis, Debye):
    X=             -0.0000    Y=             -0.0000    Z=             -0.0000  Tot=              0.0000
 Quadrupole moment (field-independent basis, Debye-Ang):
   XX=            -25.0020   YY=            -25.0020   ZZ=            -87.1503
   XY=              0.0000   XZ=              0.0000   YZ=              0.0000

 Normal termination of Gaussian 16 at Sat Dec 31 21:58:53 2022.
