 Gaussian 16, Revision A.03,
 Gaussian 16:  ES64L-G16RevA.03 25-Dec-2016

 -------------------------------------
 #p CCSD(T)/cc-pVTZ Guess=Read SCF=XQC
 -------------------------------------

 ---------
 O2_O2_210
 ---------
 Symbolic Z-matrix:
 Charge = -2 Multiplicity = 3

                         Standard orientation:
 ---------------------------------------------------------------------
 Center     Atomic      Atomic             Coordinates (Angstroms)
 Number     Number       Type             X           Y           Z
 ---------------------------------------------------------------------
      1          8           0        0.000000    0.000000    2.279227
      2          8           0        0.000000    0.000000    3.631607
      3          8           0        0.000000    0.000000   -3.631607
      4          8           0        0.000000    0.000000   -2.279227
 ---------------------------------------------------------------------

 SCF Done:  E(UHF) =  -298.958341980     A.U. after   11 cycles
 E2 =    -0.1222616328D+01 EUMP2 =    -0.30018095830790D+03
 CCSD(T)
 CCSD(T)= -0.30012692601D+03

 The electronic state is 3-SGG.
 Alpha  occ. eigenvalues --  -20.22418 -20.22418 -20.20229 -20.20229  -1.07177
 Alpha  occ. eigenvalues --   -1.07176  -0.70771  -0.70762  -0.25715  -0.25715
 Alpha  occ. eigenvalues --   -0.25711  -0.25711  -0.20101  -0.20041  -0.04777
 Alpha  occ. eigenvalues --   -0.04777  -0.04769  -0.04769
 Alpha virt. eigenvalues --    0.71302   0.72707   1.11066   1.13011   1.13011
 Alpha virt. eigenvalues --    1.13083   1.13083   1.13142   1.16347   1.18960
 Alpha virt. eigenvalues --    1.21579   1.21579   1.21784   1.21784   1.35130

  Beta  occ. eigenvalues --  -20.18961 -20.18961 -20.17606 -20.17606  -0.99084
  Beta  occ. eigenvalues --   -0.99071  -0.59483  -0.59376  -0.17585  -0.17499
  Beta  occ. eigenvalues --   -0.11284  -0.11284  -0.11008  -0.11008   0.23810
  Beta  occ. eigenvalues --    0.23810
  Beta virt. eigenvalues --    0.33317   0.33317   0.74368   0.76015   1.13079
  Beta virt. eigenvalues --    1.14686   1.17122   1.17920   1.17920   1.17977
  Beta virt. eigenvalues --    1.17977   1.20076   1.26910   1.26910   1.27126

 Mulliken charges and spin densities:
               1          2
     1  O   -0.431841   0.589211
     2  O   -0.568159   0.410789
     3  O   -0.568159   0.410789
     4  O   -0.431841   0.589211
 Sum of Mulliken charges =  -2.00000   2.00000

 Dipole moment (field-independent basis, Debye):
    X=             -0.0000    Y=              0.0000    Z=             -0.0000  Tot=              0.0000
 Quadrupole moment (field-independent basis, Debye-Ang):
   XX=            -24.9492   YY=            -24.9492   ZZ=           -120.1661
   XY=              0.0000   XZ=              0.0000   YZ=              0.0000

 Normal termination of Gaussian 16 at Sun Jan  1 00:01:05 2023.
