 Gaussian 16, Revision A.03,
 Gaussian 16:  ES64L-G16RevA.03 25-Dec-2016

 -------------------------------------
 #p CCSD(T)/cc-pVTZ Guess=Read SCF=XQC
 -------------------------------------

 --------
 O2_O2_35
 --------
 Symbolic Z-matrix:
 Charge = -2 Multiplicity = 3

                         Standard orientation:
 ---------------------------------------------------------------------
 Center     Atomic      Atomic             Coordinates (Angstroms)
 Number     Number       Type             X           Y           Z
 ---------------------------------------------------------------------
      1          8           0        0.000000    0.000000    1.040351
      2          8           0        0.000000    0.000000    2.392731
      3          8           0        0.000000    0.000000   -2.392731
      4          8           0        0.000000    0.000000   -1.040351
 ---------------------------------------------------------------------

 SCF Done:  E(UHF) =  -298.966497121     A.U. after   12 cycles
 E2 =    -0.1044001389D+01 EUMP2 =    -0.30001049850986D+03
 CCSD(T)
 CCSD(T)= -0.30004774630D+03

 The electronic state is 3-SGG.
 Alpha  occ. eigenvalues --  -20.20129 -20.20128 -20.11140 -20.11140  -1.03180
 Alpha  occ. eigenvalues --   -1.01853  -0.66954  -0.62770  -0.22249  -0.22249
 Alpha  occ. eigenvalues --   -0.20315  -0.20315  -0.18319  -0.09494   0.00741
 Alpha  occ. eigenvalues --    0.00741   0.02397   0.02397
 Alpha virt. eigenvalues --    0.77235   0.84464   1.14422   1.14422   1.16431
 Alpha virt. eigenvalues --    1.18274   1.20578   1.20578   1.24443   1.24443
 Alpha virt. eigenvalues --    1.37148   1.38706   1.38706   1.38768   1.41667

  Beta  occ. eigenvalues --  -20.15367 -20.15361 -20.09555 -20.09555  -0.93997
  Beta  occ. eigenvalues --   -0.92818  -0.57151  -0.50535  -0.15968  -0.07048
  Beta  occ. eigenvalues --   -0.07048  -0.06106  -0.04579  -0.04579   0.22926
  Beta  occ. eigenvalues --    0.22926
  Beta virt. eigenvalues --    0.47575   0.47575   0.81054   0.88372   1.17771
  Beta virt. eigenvalues --    1.18606   1.21590   1.21590   1.24252   1.24252
  Beta virt. eigenvalues --    1.28606   1.28606   1.38910   1.39058   1.42123

 Mulliken charges and spin densities:
               1          2
     1  O   -0.273544   0.797532
     2  O   -0.726456   0.202468
     3  O   -0.726456   0.202468
     4  O   -0.273544   0.797532
 Sum of Mulliken charges =  -2.00000   2.00000

 Dipole moment (field-independent basis, Debye):
    X=             -0.0000    Y=              0.0000    Z=             -0.0000  Tot=              0.0000
 Quadrupole moment (field-independent basis, Debye-Ang):
   XX=            -25.1189   YY=            -25.1189   ZZ=            -68.8990
   XY=              0.0000   XZ=              0.0000   YZ=              0.0000

 Normal termination of Gaussian 16 at Sat Dec 31 20:26:30 2022.
