 Gaussian 16, Revision A.03,
 Gaussian 16:  ES64L-G16RevA.03 25-Dec-2016

 -------------------------------------
 #p CCSD(T)/cc-pVTZ Guess=Read SCF=XQC
 -------------------------------------

 --------
 O2_O2_67
 --------
 Symbolic Z-matrix:
 Charge = -2 Multiplicity = 3

                         Standard orientation:
 ---------------------------------------------------------------------
 Center     Atomic      Atomic             Coordinates (Angstroms)
 Number     Number       Type             X           Y           Z
 ---------------------------------------------------------------------
      1          8           0        0.000000    0.000000    1.266888
      2          8           0        0.000000    0.000000    2.619268
      3          8           0        0.000000    0.000000   -2.619268
      4          8           0        0.000000    0.000000   -1.266888
 ---------------------------------------------------------------------

 SCF Done:  E(UHF) =  -298.961342682     A.U. after   12 cycles
 E2 =    -0.1082022599D+01 EUMP2 =    -0.30004336528101D+03
 CCSD(T)
 CCSD(T)= -0.30007062159D+03

 The electronic state is 3-SGG.
 Alpha  occ. eigenvalues --  -20.20558 -20.20557 -20.13887 -20.13887  -1.03688
 Alpha  occ. eigenvalues --   -1.03341  -0.67057  -0.65648  -0.22504  -0.22504
 Alpha  occ. eigenvalues --   -0.21863  -0.21863  -0.17485  -0.13788  -0.00633
 Alpha  occ. eigenvalues --   -0.00633   0.00117   0.00117
 Alpha virt. eigenvalues --    0.75061   0.81540   1.13508   1.13508   1.15805
 Alpha virt. eigenvalues --    1.17570   1.18701   1.18701   1.22118   1.22673
 Alpha virt. eigenvalues --    1.22673   1.33797   1.33797   1.38313   1.39124

  Beta  occ. eigenvalues --  -20.16219 -20.16215 -20.11962 -20.11962  -0.95035
  Beta  occ. eigenvalues --   -0.94631  -0.56277  -0.53754  -0.15145  -0.10783
  Beta  occ. eigenvalues --   -0.07806  -0.07806  -0.06385  -0.06385   0.24142
  Beta  occ. eigenvalues --    0.24142
  Beta virt. eigenvalues --    0.42727   0.42727   0.78441   0.85434   1.16940
  Beta virt. eigenvalues --    1.18040   1.19979   1.19979   1.22793   1.22793
  Beta virt. eigenvalues --    1.24277   1.27016   1.27016   1.38689   1.39662

 Mulliken charges and spin densities:
               1          2
     1  O   -0.331291   0.731568
     2  O   -0.668709   0.268432
     3  O   -0.668709   0.268432
     4  O   -0.331291   0.731568
 Sum of Mulliken charges =  -2.00000   2.00000

 Dipole moment (field-independent basis, Debye):
    X=             -0.0000    Y=              0.0000    Z=             -0.0000  Tot=              0.0000
 Quadrupole moment (field-independent basis, Debye-Ang):
   XX=            -25.0730   YY=            -25.0730   ZZ=            -75.5192
   XY=              0.0000   XZ=              0.0000   YZ=              0.0000

 Normal termination of Gaussian 16 at Sat Dec 31 21:04:47 2022.
