 Gaussian 16, Revision A.03,
 Gaussian 16:  ES64L-G16RevA.03 25-Dec-2016

 -------------------------------------
 #p CCSD(T)/cc-pVTZ Guess=Read SCF=XQC
 -------------------------------------

 --------
 O2_O2_41
 --------
 Symbolic Z-matrix:
 Charge = -2 Multiplicity = 3

                         Standard orientation:
 ---------------------------------------------------------------------
 Center     Atomic      Atomic             Coordinates (Angstroms)
 Number     Number       Type             X           Y           Z
 ---------------------------------------------------------------------
      1          8           0        0.000000    0.000000    1.082827
      2          8           0        0.000000    0.000000    2.435207
      3          8           0        0.000000    0.000000   -2.435207
      4          8           0        0.000000    0.000000   -1.082827
 ---------------------------------------------------------------------

 SCF Done:  E(UHF) =  -298.966644187     A.U. after   12 cycles
 E2 =    -0.1050679022D+01 EUMP2 =    -0.30001732320872D+03
 CCSD(T)
 CCSD(T)= -0.30005331992D+03

 The electronic state is 3-SGG.
 Alpha  occ. eigenvalues --  -20.20246 -20.20245 -20.11729 -20.11729  -1.03223
 Alpha  occ. eigenvalues --   -1.02195  -0.66855  -0.63447  -0.22238  -0.22238
 Alpha  occ. eigenvalues --   -0.20672  -0.20672  -0.18036  -0.10553   0.00461
 Alpha  occ. eigenvalues --    0.00461   0.01889   0.01889
 Alpha virt. eigenvalues --    0.76857   0.83814   1.14071   1.14071   1.16284
 Alpha virt. eigenvalues --    1.18229   1.20202   1.20202   1.23998   1.23998
 Alpha virt. eigenvalues --    1.34897   1.37835   1.37835   1.38710   1.40514

  Beta  occ. eigenvalues --  -20.15563 -20.15557 -20.10076 -20.10076  -0.94166
  Beta  occ. eigenvalues --   -0.93211  -0.56781  -0.51278  -0.15717  -0.07256
  Beta  occ. eigenvalues --   -0.07169  -0.07169  -0.04964  -0.04964   0.23255
  Beta  occ. eigenvalues --    0.23255
  Beta virt. eigenvalues --    0.46519   0.46519   0.80601   0.87729   1.17556
  Beta virt. eigenvalues --    1.18592   1.21155   1.21155   1.23957   1.23957
  Beta virt. eigenvalues --    1.28136   1.28136   1.36927   1.39023   1.40870

 Mulliken charges and spin densities:
               1          2
     1  O   -0.286342   0.784614
     2  O   -0.713658   0.215386
     3  O   -0.713658   0.215386
     4  O   -0.286342   0.784614
 Sum of Mulliken charges =  -2.00000   2.00000

 Dipole moment (field-independent basis, Debye):
    X=             -0.0000    Y=              0.0000    Z=              0.0000  Tot=              0.0000
 Quadrupole moment (field-independent basis, Debye-Ang):
   XX=            -25.1147   YY=            -25.1147   ZZ=            -70.0037
   XY=              0.0000   XZ=              0.0000   YZ=              0.0000

 Normal termination of Gaussian 16 at Sat Dec 31 20:33:39 2022.
