 Gaussian 16, Revision A.03,
 Gaussian 16:  ES64L-G16RevA.03 25-Dec-2016

 -------------------------------------
 #p CCSD(T)/cc-pVTZ Guess=Read SCF=XQC
 -------------------------------------

 --------
 O2_O2_31
 --------
 Symbolic Z-matrix:
 Charge = -2 Multiplicity = 3

                         Standard orientation:
 ---------------------------------------------------------------------
 Center     Atomic      Atomic             Coordinates (Angstroms)
 Number     Number       Type             X           Y           Z
 ---------------------------------------------------------------------
      1          8           0        0.000000    0.000000    1.012034
      2          8           0        0.000000    0.000000    2.364414
      3          8           0        0.000000    0.000000   -2.364414
      4          8           0        0.000000    0.000000   -1.012034
 ---------------------------------------------------------------------

 SCF Done:  E(UHF) =  -298.965693647     A.U. after   12 cycles
 E2 =    -0.1039800484D+01 EUMP2 =    -0.30000549413032D+03
 CCSD(T)
 CCSD(T)= -0.30004338249D+03

 The electronic state is 3-SGG.
 Alpha  occ. eigenvalues --  -20.20038 -20.20037 -20.10722 -20.10722  -1.03178
 Alpha  occ. eigenvalues --   -1.01603  -0.67070  -0.62272  -0.22282  -0.22282
 Alpha  occ. eigenvalues --   -0.20052  -0.20052  -0.18548  -0.08693   0.00933
 Alpha  occ. eigenvalues --    0.00933   0.02763   0.02763
 Alpha virt. eigenvalues --    0.77480   0.84937   1.14697   1.14697   1.16537
 Alpha virt. eigenvalues --    1.18299   1.20838   1.20838   1.24775   1.24775
 Alpha virt. eigenvalues --    1.37982   1.38796   1.39268   1.39268   1.42986

  Beta  occ. eigenvalues --  -20.15226 -20.15219 -20.09184 -20.09184  -0.93900
  Beta  occ. eigenvalues --   -0.92539  -0.57479  -0.49994  -0.16162  -0.06979
  Beta  occ. eigenvalues --   -0.06979  -0.05238  -0.04307  -0.04307   0.22672
  Beta  occ. eigenvalues --    0.22672
  Beta virt. eigenvalues --    0.48322   0.48322   0.81346   0.88837   1.17936
  Beta virt. eigenvalues --    1.18604   1.21902   1.21902   1.24457   1.24457
  Beta virt. eigenvalues --    1.28973   1.28973   1.39068   1.39451   1.43592

 Mulliken charges and spin densities:
               1          2
     1  O   -0.264456   0.806105
     2  O   -0.735544   0.193895
     3  O   -0.735544   0.193895
     4  O   -0.264456   0.806105
 Sum of Mulliken charges =  -2.00000   2.00000

 Dipole moment (field-independent basis, Debye):
    X=             -0.0000    Y=              0.0000    Z=             -0.0000  Tot=              0.0000
 Quadrupole moment (field-independent basis, Debye-Ang):
   XX=            -25.1194   YY=            -25.1194   ZZ=            -68.2055
   XY=              0.0000   XZ=              0.0000   YZ=              0.0000

 Normal termination of Gaussian 16 at Sat Dec 31 20:21:44 2022.
