 Gaussian 16, Revision A.03,
 Gaussian 16:  ES64L-G16RevA.03 25-Dec-2016

 -------------------------------------
 #p CCSD(T)/cc-pVTZ Guess=Read SCF=XQC
 -------------------------------------

 ---------
 O2_O2_273
 ---------
 Symbolic Z-matrix:
 Charge = -2 Multiplicity = 3

                         Standard orientation:
 ---------------------------------------------------------------------
 Center     Atomic      Atomic             Coordinates (Angstroms)
 Number     Number       Type             X           Y           Z
 ---------------------------------------------------------------------
      1          8           0        0.000000    0.000000    2.725222
      2          8           0        0.000000    0.000000    4.077602
      3          8           0        0.000000    0.000000   -4.077602
      4          8           0        0.000000    0.000000   -2.725222
 ---------------------------------------------------------------------

 SCF Done:  E(UHF) =  -298.963477254     A.U. after   11 cycles
 E2 =    -0.1271824646D+01 EUMP2 =    -0.30023530190095D+03
 CCSD(T)
 CCSD(T)= -0.30014212774D+03

 The electronic state is 3-SGG.
 Alpha  occ. eigenvalues --  -20.23342 -20.23342 -20.21706 -20.21706  -1.08341
 Alpha  occ. eigenvalues --   -1.08341  -0.71989  -0.71988  -0.26870  -0.26870
 Alpha  occ. eigenvalues --   -0.26869  -0.26869  -0.21299  -0.21295  -0.05993
 Alpha  occ. eigenvalues --   -0.05993  -0.05992  -0.05992
 Alpha virt. eigenvalues --    0.70670   0.70800   1.10958   1.11151   1.11888
 Alpha virt. eigenvalues --    1.11888   1.11891   1.11891   1.15893   1.16059
 Alpha virt. eigenvalues --    1.20476   1.20476   1.20485   1.20485   1.33986

  Beta  occ. eigenvalues --  -20.19987 -20.19987 -20.18978 -20.18978  -1.00263
  Beta  occ. eigenvalues --   -1.00258  -0.60668  -0.60612  -0.18781  -0.18768
  Beta  occ. eigenvalues --   -0.12391  -0.12391  -0.12215  -0.12215   0.23291
  Beta  occ. eigenvalues --    0.23291
  Beta virt. eigenvalues --    0.31393   0.31393   0.73840   0.73993   1.12823
  Beta virt. eigenvalues --    1.12989   1.16764   1.16807   1.16807   1.16811
  Beta virt. eigenvalues --    1.16811   1.16965   1.25797   1.25797   1.25808

 Mulliken charges and spin densities:
               1          2
     1  O   -0.448579   0.567202
     2  O   -0.551421   0.432798
     3  O   -0.551421   0.432798
     4  O   -0.448579   0.567202
 Sum of Mulliken charges =  -2.00000   2.00000

 Dipole moment (field-independent basis, Debye):
    X=             -0.0000    Y=              0.0000    Z=              0.0000  Tot=              0.0000
 Quadrupole moment (field-independent basis, Debye-Ang):
   XX=            -24.9430   YY=            -24.9430   ZZ=           -146.6436
   XY=              0.0000   XZ=              0.0000   YZ=              0.0000

 Normal termination of Gaussian 16 at Sun Jan  1 01:18:10 2023.
