 Gaussian 16, Revision A.03,
 Gaussian 16:  ES64L-G16RevA.03 25-Dec-2016

 -------------------------------------
 #p CCSD(T)/cc-pVTZ Guess=Read SCF=XQC
 -------------------------------------

 ---------
 O2_O2_245
 ---------
 Symbolic Z-matrix:
 Charge = -2 Multiplicity = 3

                         Standard orientation:
 ---------------------------------------------------------------------
 Center     Atomic      Atomic             Coordinates (Angstroms)
 Number     Number       Type             X           Y           Z
 ---------------------------------------------------------------------
      1          8           0        0.000000    0.000000    2.527002
      2          8           0        0.000000    0.000000    3.879382
      3          8           0        0.000000    0.000000   -3.879382
      4          8           0        0.000000    0.000000   -2.527002
 ---------------------------------------------------------------------

 SCF Done:  E(UHF) =  -298.961275494     A.U. after   11 cycles
 E2 =    -0.1250237481D+01 EUMP2 =    -0.30021151297552D+03
 CCSD(T)
 CCSD(T)= -0.30013588292D+03

 The electronic state is 3-SGG.
 Alpha  occ. eigenvalues --  -20.22953 -20.22953 -20.21104 -20.21104  -1.07860
 Alpha  occ. eigenvalues --   -1.07859  -0.71487  -0.71485  -0.26391  -0.26391
 Alpha  occ. eigenvalues --   -0.26391  -0.26391  -0.20801  -0.20785  -0.05492
 Alpha  occ. eigenvalues --   -0.05492  -0.05490  -0.05490
 Alpha virt. eigenvalues --    0.71055   0.71472   1.11253   1.11877   1.12360
 Alpha virt. eigenvalues --    1.12360   1.12374   1.12374   1.16248   1.16871
 Alpha virt. eigenvalues --    1.20954   1.20954   1.20994   1.20994   1.34459

  Beta  occ. eigenvalues --  -20.19560 -20.19559 -20.18418 -20.18418  -0.99777
  Beta  occ. eigenvalues --   -0.99769  -0.60179  -0.60106  -0.18282  -0.18255
  Beta  occ. eigenvalues --   -0.11932  -0.11932  -0.11719  -0.11719   0.23511
  Beta  occ. eigenvalues --    0.23511
  Beta virt. eigenvalues --    0.32174   0.32174   0.74203   0.74694   1.13141
  Beta virt. eigenvalues --    1.13641   1.17101   1.17273   1.17273   1.17286
  Beta virt. eigenvalues --    1.17286   1.17829   1.26279   1.26279   1.26323

 Mulliken charges and spin densities:
               1          2
     1  O   -0.442004   0.575760
     2  O   -0.557996   0.424240
     3  O   -0.557996   0.424240
     4  O   -0.442004   0.575760
 Sum of Mulliken charges =  -2.00000   2.00000

 Dipole moment (field-independent basis, Debye):
    X=             -0.0000    Y=              0.0000    Z=              0.0000  Tot=              0.0000
 Quadrupole moment (field-independent basis, Debye-Ang):
   XX=            -24.9450   YY=            -24.9450   ZZ=           -134.3794
   XY=              0.0000   XZ=              0.0000   YZ=              0.0000

 Normal termination of Gaussian 16 at Sun Jan  1 00:43:48 2023.
