 Gaussian 16, Revision A.03,
 Gaussian 16:  ES64L-G16RevA.03 25-Dec-2016

 -------------------------------------
 #p CCSD(T)/cc-pVTZ Guess=Read SCF=XQC
 -------------------------------------

 --------
 O2_O2_15
 --------
 Symbolic Z-matrix:
 Charge = -2 Multiplicity = 3

                         Standard orientation:
 ---------------------------------------------------------------------
 Center     Atomic      Atomic             Coordinates (Angstroms)
 Number     Number       Type             X           Y           Z
 ---------------------------------------------------------------------
      1          8           0        0.000000    0.000000    0.898765
      2          8           0        0.000000    0.000000    2.251145
      3          8           0        0.000000    0.000000   -2.251145
      4          8           0        0.000000    0.000000   -0.898765
 ---------------------------------------------------------------------

 SCF Done:  E(UHF) =  -298.951894527     A.U. after   12 cycles
 E2 =    -0.1026316192D+01 EUMP2 =    -0.29997821071876D+03
 CCSD(T)
 CCSD(T)= -0.30001682130D+03

 The electronic state is 3-SGG.
 Alpha  occ. eigenvalues --  -20.19586 -20.19585 -20.08804 -20.08804  -1.03563
 Alpha  occ. eigenvalues --   -1.00370  -0.68118  -0.59830  -0.22762  -0.22762
 Alpha  occ. eigenvalues --   -0.19824  -0.18767  -0.18767  -0.04477   0.01753
 Alpha  occ. eigenvalues --    0.01753   0.04477   0.04477
 Alpha virt. eigenvalues --    0.78348   0.87291   1.15981   1.15981   1.17082
 Alpha virt. eigenvalues --    1.18318   1.21976   1.21976   1.26421   1.26421
 Alpha virt. eigenvalues --    1.38561   1.38801   1.41330   1.41330   1.49457

  Beta  occ. eigenvalues --  -20.14593 -20.14582 -20.07450 -20.07450  -0.93777
  Beta  occ. eigenvalues --   -0.91262  -0.59706  -0.47411  -0.17131  -0.06870
  Beta  occ. eigenvalues --   -0.06870  -0.03054  -0.03054  -0.00678   0.21326
  Beta  occ. eigenvalues --    0.21326
  Beta virt. eigenvalues --    0.51672   0.51672   0.82361   0.91109   1.18468
  Beta virt. eigenvalues --    1.18878   1.23134   1.23134   1.25379   1.25379
  Beta virt. eigenvalues --    1.30861   1.30861   1.38959   1.39618   1.47542

 Mulliken charges and spin densities:
               1          2
     1  O   -0.221981   0.838298
     2  O   -0.778019   0.161702
     3  O   -0.778019   0.161702
     4  O   -0.221981   0.838298
 Sum of Mulliken charges =  -2.00000   2.00000

 Dipole moment (field-independent basis, Debye):
    X=             -0.0000    Y=              0.0000    Z=              0.0000  Tot=              0.0000
 Quadrupole moment (field-independent basis, Debye-Ang):
   XX=            -25.0929   YY=            -25.0929   ZZ=            -65.8524
   XY=              0.0000   XZ=              0.0000   YZ=              0.0000

 24\PMP3-0=-299.9452205\MP4SDQ=-299.9605341\CCSD=-299.9552946\CCSD(T)=-
 Normal termination of Gaussian 16 at Sat Dec 31 20:03:10 2022.
