 Gaussian 16, Revision A.03,
 Gaussian 16:  ES64L-G16RevA.03 25-Dec-2016

 -------------------------------------
 #p CCSD(T)/cc-pVTZ Guess=Read SCF=XQC
 -------------------------------------

 ---------
 O2_O2_175
 ---------
 Symbolic Z-matrix:
 Charge = -2 Multiplicity = 3

                         Standard orientation:
 ---------------------------------------------------------------------
 Center     Atomic      Atomic             Coordinates (Angstroms)
 Number     Number       Type             X           Y           Z
 ---------------------------------------------------------------------
      1          8           0        0.000000    0.000000    2.031452
      2          8           0        0.000000    0.000000    3.383832
      3          8           0        0.000000    0.000000   -3.383832
      4          8           0        0.000000    0.000000   -2.031452
 ---------------------------------------------------------------------

 SCF Done:  E(UHF) =  -298.955551660     A.U. after   11 cycles
 E2 =    -0.1193636207D+01 EUMP2 =    -0.30014918786649D+03
 CCSD(T)
 CCSD(T)= -0.30011642926D+03

 The electronic state is 3-SGG.
 Alpha  occ. eigenvalues --  -20.21850 -20.21850 -20.19176 -20.19176  -1.06400
 Alpha  occ. eigenvalues --   -1.06395  -0.69946  -0.69912  -0.24951  -0.24951
 Alpha  occ. eigenvalues --   -0.24936  -0.24936  -0.19325  -0.19135  -0.03954
 Alpha  occ. eigenvalues --   -0.03954  -0.03922  -0.03922
 Alpha virt. eigenvalues --    0.71058   0.74523   1.09349   1.13679   1.13679
 Alpha virt. eigenvalues --    1.13978   1.13978   1.14412   1.16207   1.22101
 Alpha virt. eigenvalues --    1.22101   1.22928   1.22928   1.24338   1.35888

  Beta  occ. eigenvalues --  -20.18302 -20.18301 -20.16641 -20.16641  -0.98283
  Beta  occ. eigenvalues --   -0.98259  -0.58687  -0.58503  -0.16816  -0.16567
  Beta  occ. eigenvalues --   -0.10548  -0.10548  -0.10174  -0.10174   0.24119
  Beta  occ. eigenvalues --    0.24119
  Beta virt. eigenvalues --    0.34712   0.34712   0.73938   0.77996   1.11543
  Beta virt. eigenvalues --    1.15679   1.16936   1.18611   1.18611   1.18828
  Beta virt. eigenvalues --    1.18828   1.25610   1.27427   1.27427   1.28307

 Mulliken charges and spin densities:
               1          2
     1  O   -0.418628   0.607389
     2  O   -0.581372   0.392611
     3  O   -0.581372   0.392611
     4  O   -0.418628   0.607389
 Sum of Mulliken charges =  -2.00000   2.00000

 Dipole moment (field-independent basis, Debye):
    X=             -0.0000    Y=              0.0000    Z=             -0.0000  Tot=              0.0000
 Quadrupole moment (field-independent basis, Debye-Ang):
   XX=            -24.9577   YY=            -24.9577   ZZ=           -107.2064
   XY=              0.0000   XZ=              0.0000   YZ=              0.0000

 Normal termination of Gaussian 16 at Sat Dec 31 23:16:59 2022.
