 Gaussian 16, Revision A.03,
 Gaussian 16:  ES64L-G16RevA.03 25-Dec-2016

 -------------------------------------
 #p CCSD(T)/cc-pVTZ Guess=Read SCF=XQC
 -------------------------------------

 ---------
 O2_O2_183
 ---------
 Symbolic Z-matrix:
 Charge = -2 Multiplicity = 3

                         Standard orientation:
 ---------------------------------------------------------------------
 Center     Atomic      Atomic             Coordinates (Angstroms)
 Number     Number       Type             X           Y           Z
 ---------------------------------------------------------------------
      1          8           0        0.000000    0.000000    2.088086
      2          8           0        0.000000    0.000000    3.440466
      3          8           0        0.000000    0.000000   -3.440466
      4          8           0        0.000000    0.000000   -2.088086
 ---------------------------------------------------------------------

 SCF Done:  E(UHF) =  -298.956141684     A.U. after   11 cycles
 E2 =    -0.1200431548D+01 EUMP2 =    -0.30015657323183D+03
 CCSD(T)
 CCSD(T)= -0.30011898075D+03

 The electronic state is 3-SGG.
 Alpha  occ. eigenvalues --  -20.21980 -20.21980 -20.19435 -20.19435  -1.06585
 Alpha  occ. eigenvalues --   -1.06582  -0.70144  -0.70119  -0.25133  -0.25133
 Alpha  occ. eigenvalues --   -0.25122  -0.25122  -0.19508  -0.19359  -0.04152
 Alpha  occ. eigenvalues --   -0.04152  -0.04128  -0.04128
 Alpha virt. eigenvalues --    0.71155   0.74061   1.09900   1.13531   1.13531
 Alpha virt. eigenvalues --    1.13751   1.13751   1.14155   1.16217   1.22003
 Alpha virt. eigenvalues --    1.22003   1.22617   1.22617   1.22669   1.35707

  Beta  occ. eigenvalues --  -20.18457 -20.18456 -20.16877 -20.16877  -0.98476
  Beta  occ. eigenvalues --   -0.98455  -0.58878  -0.58718  -0.16996  -0.16800
  Beta  occ. eigenvalues --   -0.10724  -0.10724  -0.10377  -0.10377   0.24050
  Beta  occ. eigenvalues --    0.24050
  Beta virt. eigenvalues --    0.34366   0.34366   0.74087   0.77490   1.12057
  Beta virt. eigenvalues --    1.15476   1.16944   1.18453   1.18453   1.18616
  Beta virt. eigenvalues --    1.18616   1.23922   1.27333   1.27333   1.27984

 Mulliken charges and spin densities:
               1          2
     1  O   -0.421991   0.602686
     2  O   -0.578009   0.397314
     3  O   -0.578009   0.397314
     4  O   -0.421991   0.602686
 Sum of Mulliken charges =  -2.00000   2.00000

 Dipole moment (field-independent basis, Debye):
    X=             -0.0000    Y=             -0.0000    Z=              0.0000  Tot=              0.0000
 Quadrupole moment (field-independent basis, Debye-Ang):
   XX=            -24.9552   YY=            -24.9552   ZZ=           -110.0570
   XY=              0.0000   XZ=              0.0000   YZ=              0.0000

 Normal termination of Gaussian 16 at Sat Dec 31 23:27:07 2022.
