 Gaussian 16, Revision A.03,
 Gaussian 16:  ES64L-G16RevA.03 25-Dec-2016

 -------------------------------------
 #p CCSD(T)/cc-pVTZ Guess=Read SCF=XQC
 -------------------------------------

 --------
 O2_O2_79
 --------
 Symbolic Z-matrix:
 Charge = -2 Multiplicity = 3

                         Standard orientation:
 ---------------------------------------------------------------------
 Center     Atomic      Atomic             Coordinates (Angstroms)
 Number     Number       Type             X           Y           Z
 ---------------------------------------------------------------------
      1          8           0        0.000000    0.000000    1.351840
      2          8           0        0.000000    0.000000    2.704220
      3          8           0        0.000000    0.000000   -2.704220
      4          8           0        0.000000    0.000000   -1.351840
 ---------------------------------------------------------------------

 SCF Done:  E(UHF) =  -298.958568078     A.U. after   12 cycles
 E2 =    -0.1096585480D+01 EUMP2 =    -0.30005515355779D+03
 CCSD(T)
 CCSD(T)= -0.30007698522D+03

 The electronic state is 3-SGG.
 Alpha  occ. eigenvalues --  -20.20652 -20.20652 -20.14717 -20.14717  -1.03971
 Alpha  occ. eigenvalues --   -1.03760  -0.67324  -0.66386  -0.22719  -0.22719
 Alpha  occ. eigenvalues --   -0.22292  -0.22292  -0.17487  -0.14805  -0.01083
 Alpha  occ. eigenvalues --   -0.01083  -0.00528  -0.00528
 Alpha virt. eigenvalues --    0.74136   0.80669   1.13647   1.13647   1.15699
 Alpha virt. eigenvalues --    1.15700   1.18054   1.18054   1.18752   1.22344
 Alpha virt. eigenvalues --    1.22344   1.31914   1.31914   1.38076   1.38716

  Beta  occ. eigenvalues --  -20.16459 -20.16456 -20.12684 -20.12684  -0.95450
  Beta  occ. eigenvalues --   -0.95172  -0.56382  -0.54599  -0.15112  -0.11897
  Beta  occ. eigenvalues --   -0.08125  -0.08125  -0.06942  -0.06942   0.24341
  Beta  occ. eigenvalues --    0.24341
  Beta virt. eigenvalues --    0.41335   0.41335   0.77332   0.84540   1.16813
  Beta virt. eigenvalues --    1.16836   1.19789   1.19789   1.20350   1.22287
  Beta virt. eigenvalues --    1.22287   1.26877   1.26877   1.37850   1.37850

 Mulliken charges and spin densities:
               1          2
     1  O   -0.347191   0.710023
     2  O   -0.652809   0.289977
     3  O   -0.652809   0.289977
     4  O   -0.347191   0.710023
 Sum of Mulliken charges =  -2.00000   2.00000

 Dipole moment (field-independent basis, Debye):
    X=             -0.0000    Y=             -0.0000    Z=             -0.0000  Tot=              0.0000
 Quadrupole moment (field-independent basis, Debye-Ang):
   XX=            -25.0511   YY=            -25.0511   ZZ=            -78.3886
   XY=              0.0000   XZ=              0.0000   YZ=              0.0000

 Normal termination of Gaussian 16 at Sat Dec 31 21:18:39 2022.
