 Gaussian 16, Revision A.03,
 Gaussian 16:  ES64L-G16RevA.03 25-Dec-2016

 -------------------------------------
 #p CCSD(T)/cc-pVTZ Guess=Read SCF=XQC
 -------------------------------------

 ---------
 O2_O2_213
 ---------
 Symbolic Z-matrix:
 Charge = -2 Multiplicity = 3

                         Standard orientation:
 ---------------------------------------------------------------------
 Center     Atomic      Atomic             Coordinates (Angstroms)
 Number     Number       Type             X           Y           Z
 ---------------------------------------------------------------------
      1          8           0        0.000000    0.000000    2.300464
      2          8           0        0.000000    0.000000    3.652845
      3          8           0        0.000000    0.000000   -3.652845
      4          8           0        0.000000    0.000000   -2.300464
 ---------------------------------------------------------------------

 SCF Done:  E(UHF) =  -298.958595703     A.U. after   11 cycles
 E2 =    -0.1225024552D+01 EUMP2 =    -0.30018362025497D+03
 CCSD(T)
 CCSD(T)= -0.30012774981D+03

 The electronic state is 3-SGG.
 Alpha  occ. eigenvalues --  -20.22466 -20.22466 -20.20310 -20.20310  -1.07239
 Alpha  occ. eigenvalues --   -1.07238  -0.70836  -0.70828  -0.25777  -0.25777
 Alpha  occ. eigenvalues --   -0.25773  -0.25773  -0.20164  -0.20110  -0.04842
 Alpha  occ. eigenvalues --   -0.04842  -0.04835  -0.04835
 Alpha virt. eigenvalues --    0.71298   0.72579   1.11128   1.12953   1.12953
 Alpha virt. eigenvalues --    1.13017   1.13017   1.13023   1.16357   1.18693
 Alpha virt. eigenvalues --    1.21526   1.21526   1.21706   1.21706   1.35069

  Beta  occ. eigenvalues --  -20.19015 -20.19015 -20.17681 -20.17681  -0.99148
  Beta  occ. eigenvalues --   -0.99135  -0.59547  -0.59443  -0.17647  -0.17570
  Beta  occ. eigenvalues --   -0.11343  -0.11343  -0.11073  -0.11073   0.23784
  Beta  occ. eigenvalues --    0.23784
  Beta virt. eigenvalues --    0.33210   0.33210   0.74375   0.75876   1.13125
  Beta virt. eigenvalues --    1.14592   1.17141   1.17863   1.17863   1.17913
  Beta virt. eigenvalues --    1.17913   1.19791   1.26857   1.26857   1.27047

 Mulliken charges and spin densities:
               1          2
     1  O   -0.432814   0.587904
     2  O   -0.567186   0.412096
     3  O   -0.567186   0.412096
     4  O   -0.432814   0.587904
 Sum of Mulliken charges =  -2.00000   2.00000

 Dipole moment (field-independent basis, Debye):
    X=             -0.0000    Y=              0.0000    Z=             -0.0000  Tot=              0.0000
 Quadrupole moment (field-independent basis, Debye-Ang):
   XX=            -24.9488   YY=            -24.9488   ZZ=           -121.3355
   XY=              0.0000   XZ=              0.0000   YZ=              0.0000

 Normal termination of Gaussian 16 at Sun Jan  1 00:04:35 2023.
