 Gaussian 16, Revision A.03,
 Gaussian 16:  ES64L-G16RevA.03 25-Dec-2016

 -------------------------------------
 #p CCSD(T)/cc-pVTZ Guess=Read SCF=XQC
 -------------------------------------

 ---------
 O2_O2_115
 ---------
 Symbolic Z-matrix:
 Charge = -2 Multiplicity = 3

                         Standard orientation:
 ---------------------------------------------------------------------
 Center     Atomic      Atomic             Coordinates (Angstroms)
 Number     Number       Type             X           Y           Z
 ---------------------------------------------------------------------
      1          8           0        0.000000    0.000000    1.606694
      2          8           0        0.000000    0.000000    2.959074
      3          8           0        0.000000    0.000000   -2.959074
      4          8           0        0.000000    0.000000   -1.606694
 ---------------------------------------------------------------------

 SCF Done:  E(UHF) =  -298.954021221     A.U. after   11 cycles
 E2 =    -0.1137169018D+01 EUMP2 =    -0.30009119023931D+03
 CCSD(T)
 CCSD(T)= -0.30009385125D+03

 The electronic state is 3-SGG.
 Alpha  occ. eigenvalues --  -20.20983 -20.20983 -20.16762 -20.16762  -1.04893
 Alpha  occ. eigenvalues --   -1.04844  -0.68311  -0.68037  -0.23516  -0.23516
 Alpha  occ. eigenvalues --   -0.23389  -0.23389  -0.17977  -0.16952  -0.02281
 Alpha  occ. eigenvalues --   -0.02281  -0.02069  -0.02069
 Alpha virt. eigenvalues --    0.71581   0.78319   1.08042   1.14220   1.14220
 Alpha virt. eigenvalues --    1.15543   1.16250   1.16250   1.17088   1.22151
 Alpha virt. eigenvalues --    1.22151   1.27112   1.27112   1.37250   1.37569

  Beta  occ. eigenvalues --  -20.17133 -20.17131 -20.14474 -20.14474  -0.96625
  Beta  occ. eigenvalues --   -0.96527  -0.57150  -0.56476  -0.15518  -0.14242
  Beta  occ. eigenvalues --   -0.09086  -0.09086  -0.08365  -0.08365   0.24494
  Beta  occ. eigenvalues --    0.24494
  Beta virt. eigenvalues --    0.38124   0.38124   0.74336   0.82093   1.10281
  Beta virt. eigenvalues --    1.16641   1.17887   1.19556   1.19556   1.20831
  Beta virt. eigenvalues --    1.20831   1.27224   1.27224   1.32744   1.32744

 Mulliken charges and spin densities:
               1          2
     1  O   -0.383082   0.658664
     2  O   -0.616918   0.341336
     3  O   -0.616918   0.341336
     4  O   -0.383082   0.658664
 Sum of Mulliken charges =  -2.00000   2.00000

 Dipole moment (field-independent basis, Debye):
    X=             -0.0000    Y=              0.0000    Z=              0.0000  Tot=              0.0000
 Quadrupole moment (field-independent basis, Debye-Ang):
   XX=            -24.9985   YY=            -24.9985   ZZ=            -88.0072
   XY=              0.0000   XZ=              0.0000   YZ=              0.0000

 Normal termination of Gaussian 16 at Sat Dec 31 22:02:35 2022.
