 Gaussian 16, Revision A.03,
 Gaussian 16:  ES64L-G16RevA.03 25-Dec-2016

 -------------------------------------
 #p CCSD(T)/cc-pVTZ Guess=Read SCF=XQC
 -------------------------------------

 --------
 O2_O2_46
 --------
 Symbolic Z-matrix:
 Charge = -2 Multiplicity = 3

                         Standard orientation:
 ---------------------------------------------------------------------
 Center     Atomic      Atomic             Coordinates (Angstroms)
 Number     Number       Type             X           Y           Z
 ---------------------------------------------------------------------
      1          8           0        0.000000    0.000000    1.118223
      2          8           0        0.000000    0.000000    2.470603
      3          8           0        0.000000    0.000000   -2.470603
      4          8           0        0.000000    0.000000   -1.118223
 ---------------------------------------------------------------------

 SCF Done:  E(UHF) =  -298.966109559     A.U. after   11 cycles
 E2 =    -0.1056495983D+01 EUMP2 =    -0.30002260554208D+03
 CCSD(T)
 CCSD(T)= -0.30005731449D+03

 The electronic state is 3-SGG.
 Alpha  occ. eigenvalues --  -20.20327 -20.20327 -20.12190 -20.12190  -1.03284
 Alpha  occ. eigenvalues --   -1.02452  -0.66828  -0.63955  -0.22257  -0.22257
 Alpha  occ. eigenvalues --   -0.20941  -0.20941  -0.17852  -0.11326   0.00236
 Alpha  occ. eigenvalues --    0.00236   0.01498   0.01498
 Alpha virt. eigenvalues --    0.76532   0.83318   1.13843   1.13843   1.16170
 Alpha virt. eigenvalues --    1.18178   1.19899   1.19899   1.23670   1.23670
 Alpha virt. eigenvalues --    1.32451   1.37086   1.37086   1.38650   1.40050

  Beta  occ. eigenvalues --  -20.15711 -20.15706 -20.10481 -20.10481  -0.94322
  Beta  occ. eigenvalues --   -0.93517  -0.56566  -0.51841  -0.15544  -0.08097
  Beta  occ. eigenvalues --   -0.07280  -0.07280  -0.05266  -0.05266   0.23488
  Beta  occ. eigenvalues --    0.23488
  Beta virt. eigenvalues --    0.45695   0.45695   0.80212   0.87234   1.17399
  Beta virt. eigenvalues --    1.18562   1.20834   1.20834   1.23721   1.23721
  Beta virt. eigenvalues --    1.27813   1.27813   1.34527   1.38979   1.40463

 Mulliken charges and spin densities:
               1          2
     1  O   -0.296285   0.773927
     2  O   -0.703715   0.226073
     3  O   -0.703715   0.226073
     4  O   -0.296285   0.773927
 Sum of Mulliken charges =  -2.00000   2.00000

 Dipole moment (field-independent basis, Debye):
    X=             -0.0000    Y=             -0.0000    Z=             -0.0000  Tot=              0.0000
 Quadrupole moment (field-independent basis, Debye-Ang):
   XX=            -25.1089   YY=            -25.1089   ZZ=            -70.9780
   XY=              0.0000   XZ=              0.0000   YZ=              0.0000

 Normal termination of Gaussian 16 at Sat Dec 31 20:39:30 2022.
