 Gaussian 16, Revision A.03,
 Gaussian 16:  ES64L-G16RevA.03 25-Dec-2016

 -------------------------------------
 #p CCSD(T)/cc-pVTZ Guess=Read SCF=XQC
 -------------------------------------

 --------
 O2_O2_76
 --------
 Symbolic Z-matrix:
 Charge = -2 Multiplicity = 3

                         Standard orientation:
 ---------------------------------------------------------------------
 Center     Atomic      Atomic             Coordinates (Angstroms)
 Number     Number       Type             X           Y           Z
 ---------------------------------------------------------------------
      1          8           0        0.000000    0.000000    1.330602
      2          8           0        0.000000    0.000000    2.682982
      3          8           0        0.000000    0.000000   -2.682982
      4          8           0        0.000000    0.000000   -1.330602
 ---------------------------------------------------------------------

 SCF Done:  E(UHF) =  -298.959214576     A.U. after   12 cycles
 E2 =    -0.1092977066D+01 EUMP2 =    -0.30005219164146D+03
 CCSD(T)
 CCSD(T)= -0.30007544238D+03

 The electronic state is 3-SGG.
 Alpha  occ. eigenvalues --  -20.20629 -20.20629 -20.14518 -20.14518  -1.03898
 Alpha  occ. eigenvalues --   -1.03659  -0.67252  -0.66214  -0.22662  -0.22662
 Alpha  occ. eigenvalues --   -0.22189  -0.22189  -0.17476  -0.14570  -0.00973
 Alpha  occ. eigenvalues --   -0.00973  -0.00375  -0.00375
 Alpha virt. eigenvalues --    0.74371   0.80880   1.13599   1.13599   1.15719
 Alpha virt. eigenvalues --    1.16420   1.18213   1.18213   1.19245   1.22411
 Alpha virt. eigenvalues --    1.22411   1.32379   1.32379   1.38138   1.38816

  Beta  occ. eigenvalues --  -20.16401 -20.16398 -20.12510 -20.12510  -0.95346
  Beta  occ. eigenvalues --   -0.95042  -0.56344  -0.54401  -0.15110  -0.11639
  Beta  occ. eigenvalues --   -0.08044  -0.08044  -0.06807  -0.06807   0.24300
  Beta  occ. eigenvalues --    0.24300
  Beta virt. eigenvalues --    0.41665   0.41665   0.77613   0.84757   1.16837
  Beta virt. eigenvalues --    1.17281   1.19823   1.19823   1.21091   1.22412
  Beta virt. eigenvalues --    1.22412   1.26894   1.26894   1.38340   1.38340

 Mulliken charges and spin densities:
               1          2
     1  O   -0.343442   0.715203
     2  O   -0.656558   0.284797
     3  O   -0.656558   0.284797
     4  O   -0.343442   0.715203
 Sum of Mulliken charges =  -2.00000   2.00000

 Dipole moment (field-independent basis, Debye):
    X=             -0.0000    Y=              0.0000    Z=             -0.0000  Tot=              0.0000
 Quadrupole moment (field-independent basis, Debye-Ang):
   XX=            -25.0564   YY=            -25.0564   ZZ=            -77.6544
   XY=              0.0000   XZ=              0.0000   YZ=              0.0000

 Normal termination of Gaussian 16 at Sat Dec 31 21:15:05 2022.
