 Gaussian 16, Revision A.03,
 Gaussian 16:  ES64L-G16RevA.03 25-Dec-2016

 -------------------------------------
 #p CCSD(T)/cc-pVTZ Guess=Read SCF=XQC
 -------------------------------------

 ---------
 O2_O2_103
 ---------
 Symbolic Z-matrix:
 Charge = -2 Multiplicity = 3

                         Standard orientation:
 ---------------------------------------------------------------------
 Center     Atomic      Atomic             Coordinates (Angstroms)
 Number     Number       Type             X           Y           Z
 ---------------------------------------------------------------------
      1          8           0        0.000000    0.000000    1.521743
      2          8           0        0.000000    0.000000    2.874123
      3          8           0        0.000000    0.000000   -2.874123
      4          8           0        0.000000    0.000000   -1.521743
 ---------------------------------------------------------------------

 SCF Done:  E(UHF) =  -298.954889377     A.U. after   11 cycles
 E2 =    -0.1124256269D+01 EUMP2 =    -0.30007914564560D+03
 CCSD(T)
 CCSD(T)= -0.30008852636D+03

 The electronic state is 3-SGG.
 Alpha  occ. eigenvalues --  -20.20856 -20.20856 -20.16144 -20.16144  -1.04580
 Alpha  occ. eigenvalues --   -1.04500  -0.67969  -0.67555  -0.23234  -0.23234
 Alpha  occ. eigenvalues --   -0.23044  -0.23044  -0.17760  -0.16346  -0.01902
 Alpha  occ. eigenvalues --   -0.01902  -0.01606  -0.01606
 Alpha virt. eigenvalues --    0.72310   0.79082   1.09742   1.14089   1.14089
 Alpha virt. eigenvalues --    1.15611   1.16824   1.16824   1.17445   1.22119
 Alpha virt. eigenvalues --    1.22119   1.28518   1.28518   1.37541   1.37939

  Beta  occ. eigenvalues --  -20.16908 -20.16906 -20.13930 -20.13930  -0.96248
  Beta  occ. eigenvalues --   -0.96111  -0.56853  -0.55934  -0.15323  -0.13582
  Beta  occ. eigenvalues --   -0.08769  -0.08769  -0.07926  -0.07926   0.24497
  Beta  occ. eigenvalues --    0.24497
  Beta virt. eigenvalues --    0.39060   0.39060   0.75176   0.82894   1.11861
  Beta virt. eigenvalues --    1.16707   1.18282   1.19642   1.19642   1.21304
  Beta virt. eigenvalues --    1.21304   1.27041   1.27041   1.34244   1.34244

 Mulliken charges and spin densities:
               1          2
     1  O   -0.372770   0.673646
     2  O   -0.627230   0.326354
     3  O   -0.627230   0.326354
     4  O   -0.372770   0.673646
 Sum of Mulliken charges =  -2.00000   2.00000

 Dipole moment (field-independent basis, Debye):
    X=             -0.0000    Y=             -0.0000    Z=              0.0000  Tot=              0.0000
 Quadrupole moment (field-independent basis, Debye-Ang):
   XX=            -25.0134   YY=            -25.0134   ZZ=            -84.6393
   XY=              0.0000   XZ=              0.0000   YZ=              0.0000

 Normal termination of Gaussian 16 at Sat Dec 31 21:48:05 2022.
