 Gaussian 16, Revision A.03,
 Gaussian 16:  ES64L-G16RevA.03 25-Dec-2016

 -------------------------------------
 #p CCSD(T)/cc-pVTZ Guess=Read SCF=XQC
 -------------------------------------

 --------
 O2_O2_64
 --------
 Symbolic Z-matrix:
 Charge = -2 Multiplicity = 3

                         Standard orientation:
 ---------------------------------------------------------------------
 Center     Atomic      Atomic             Coordinates (Angstroms)
 Number     Number       Type             X           Y           Z
 ---------------------------------------------------------------------
      1          8           0        0.000000    0.000000    1.245650
      2          8           0        0.000000    0.000000    2.598030
      3          8           0        0.000000    0.000000   -2.598030
      4          8           0        0.000000    0.000000   -1.245650
 ---------------------------------------------------------------------

 SCF Done:  E(UHF) =  -298.962092922     A.U. after   12 cycles
 E2 =    -0.1078344341D+01 EUMP2 =    -0.30004043726277D+03
 CCSD(T)
 CCSD(T)= -0.30006893410D+03

 The electronic state is 3-SGG.
 Alpha  occ. eigenvalues --  -20.20532 -20.20532 -20.13665 -20.13665  -1.03621
 Alpha  occ. eigenvalues --   -1.03229  -0.67001  -0.65442  -0.22457  -0.22457
 Alpha  occ. eigenvalues --   -0.21747  -0.21747  -0.17504  -0.13497  -0.00516
 Alpha  occ. eigenvalues --   -0.00516   0.00292   0.00292
 Alpha virt. eigenvalues --    0.75283   0.81771   1.13502   1.13502   1.15843
 Alpha virt. eigenvalues --    1.17738   1.18866   1.18866   1.22781   1.22781
 Alpha virt. eigenvalues --    1.23410   1.34274   1.34274   1.38368   1.39231

  Beta  occ. eigenvalues --  -20.16155 -20.16151 -20.11769 -20.11769  -0.94931
  Beta  occ. eigenvalues --   -0.94486  -0.56274  -0.53518  -0.15173  -0.10465
  Beta  occ. eigenvalues --   -0.07727  -0.07727  -0.06237  -0.06237   0.24075
  Beta  occ. eigenvalues --    0.24075
  Beta virt. eigenvalues --    0.43107   0.43107   0.78708   0.85670   1.16987
  Beta virt. eigenvalues --    1.18179   1.20054   1.20054   1.22921   1.22921
  Beta virt. eigenvalues --    1.25574   1.27083   1.27083   1.38739   1.39760

 Mulliken charges and spin densities:
               1          2
     1  O   -0.326905   0.737287
     2  O   -0.673095   0.262713
     3  O   -0.673095   0.262713
     4  O   -0.326905   0.737287
 Sum of Mulliken charges =  -2.00000   2.00000

 Dipole moment (field-independent basis, Debye):
    X=             -0.0000    Y=              0.0000    Z=             -0.0000  Tot=              0.0000
 Quadrupole moment (field-independent basis, Debye-Ang):
   XX=            -25.0786   YY=            -25.0786   ZZ=            -74.8308
   XY=              0.0000   XZ=              0.0000   YZ=              0.0000

 0321\PMP3-0=-300.004533\MP4SDQ=-299.9946027\CCSD=-299.986242\CCSD(T)=-
 Normal termination of Gaussian 16 at Sat Dec 31 21:01:09 2022.
