 Gaussian 16, Revision A.03,
 Gaussian 16:  ES64L-G16RevA.03 25-Dec-2016

 -------------------------------------
 #p CCSD(T)/cc-pVTZ Guess=Read SCF=XQC
 -------------------------------------

 ---------
 O2_O2_163
 ---------
 Symbolic Z-matrix:
 Charge = -2 Multiplicity = 3

                         Standard orientation:
 ---------------------------------------------------------------------
 Center     Atomic      Atomic             Coordinates (Angstroms)
 Number     Number       Type             X           Y           Z
 ---------------------------------------------------------------------
      1          8           0        0.000000    0.000000    1.946500
      2          8           0        0.000000    0.000000    3.298880
      3          8           0        0.000000    0.000000   -3.298880
      4          8           0        0.000000    0.000000   -1.946500
 ---------------------------------------------------------------------

 SCF Done:  E(UHF) =  -298.954764699     A.U. after   11 cycles
 E2 =    -0.1183195684D+01 EUMP2 =    -0.30013796038320D+03
 CCSD(T)
 CCSD(T)= -0.30011241798D+03

 The electronic state is 3-SGG.
 Alpha  occ. eigenvalues --  -20.21657 -20.21657 -20.18765 -20.18765  -1.06113
 Alpha  occ. eigenvalues --   -1.06106  -0.69639  -0.69587  -0.24672  -0.24672
 Alpha  occ. eigenvalues --   -0.24648  -0.24648  -0.19047  -0.18776  -0.03646
 Alpha  occ. eigenvalues --   -0.03646  -0.03597  -0.03597
 Alpha virt. eigenvalues --    0.70902   0.75255   1.08448   1.13886   1.13886
 Alpha virt. eigenvalues --    1.14347   1.14347   1.14748   1.16247   1.22209
 Alpha virt. eigenvalues --    1.22209   1.23471   1.23471   1.27430   1.36170

  Beta  occ. eigenvalues --  -20.18067 -20.18066 -20.16267 -20.16266  -0.97981
  Beta  occ. eigenvalues --   -0.97950  -0.58392  -0.58163  -0.16544  -0.16192
  Beta  occ. eigenvalues --   -0.10275  -0.10275  -0.09855  -0.09855   0.24219
  Beta  occ. eigenvalues --    0.24219
  Beta virt. eigenvalues --    0.35270   0.35270   0.73704   0.78796   1.10692
  Beta virt. eigenvalues --    1.15952   1.16989   1.18842   1.18842   1.19170
  Beta virt. eigenvalues --    1.19170   1.27524   1.27524   1.28697   1.28875

 Mulliken charges and spin densities:
               1          2
     1  O   -0.413109   0.615193
     2  O   -0.586891   0.384807
     3  O   -0.586891   0.384807
     4  O   -0.413109   0.615193
 Sum of Mulliken charges =  -2.00000   2.00000

 Dipole moment (field-independent basis, Debye):
    X=             -0.0000    Y=             -0.0000    Z=             -0.0000  Tot=              0.0000
 Quadrupole moment (field-independent basis, Debye-Ang):
   XX=            -24.9625   YY=            -24.9625   ZZ=           -103.0564
   XY=              0.0000   XZ=              0.0000   YZ=              0.0000

 6227\PMP3-0=-300.122488\MP4SDQ=-299.9375796\CCSD=-300.0034945\CCSD(T)=
 Normal termination of Gaussian 16 at Sat Dec 31 23:02:42 2022.
