 Gaussian 16, Revision A.03,
 Gaussian 16:  ES64L-G16RevA.03 25-Dec-2016

 -------------------------------------
 #p CCSD(T)/cc-pVTZ Guess=Read SCF=XQC
 -------------------------------------

 --------
 O2_O2_53
 --------
 Symbolic Z-matrix:
 Charge = -2 Multiplicity = 3

                         Standard orientation:
 ---------------------------------------------------------------------
 Center     Atomic      Atomic             Coordinates (Angstroms)
 Number     Number       Type             X           Y           Z
 ---------------------------------------------------------------------
      1          8           0        0.000000    0.000000    1.167778
      2          8           0        0.000000    0.000000    2.520158
      3          8           0        0.000000    0.000000   -2.520158
      4          8           0        0.000000    0.000000   -1.167778
 ---------------------------------------------------------------------

 SCF Done:  E(UHF) =  -298.964772478     A.U. after   12 cycles
 E2 =    -0.1064888192D+01 EUMP2 =    -0.30002966067054D+03
 CCSD(T)
 CCSD(T)= -0.30006222736D+03

 The electronic state is 3-SGG.
 Alpha  occ. eigenvalues --  -20.20420 -20.20420 -20.12795 -20.12795  -1.03399
 Alpha  occ. eigenvalues --   -1.02778  -0.66854  -0.64590  -0.22315  -0.22315
 Alpha  occ. eigenvalues --   -0.21280  -0.21280  -0.17663  -0.12270  -0.00067
 Alpha  occ. eigenvalues --   -0.00067   0.00995   0.00995
 Alpha virt. eigenvalues --    0.76063   0.82678   1.13625   1.13625   1.16026
 Alpha virt. eigenvalues --    1.18072   1.19488   1.19488   1.23274   1.23274
 Alpha virt. eigenvalues --    1.28806   1.36009   1.36009   1.38551   1.39664

  Beta  occ. eigenvalues --  -20.15898 -20.15894 -20.11011 -20.11011  -0.94553
  Beta  occ. eigenvalues --   -0.93917  -0.56377  -0.52553  -0.15355  -0.09125
  Beta  occ. eigenvalues --   -0.07448  -0.07448  -0.05663  -0.05663   0.23759
  Beta  occ. eigenvalues --    0.23759
  Beta virt. eigenvalues --    0.44622   0.44622   0.79647   0.86591   1.17212
  Beta virt. eigenvalues --    1.18476   1.20459   1.20459   1.23403   1.23403
  Beta virt. eigenvalues --    1.27455   1.27455   1.30920   1.38899   1.40142

 Mulliken charges and spin densities:
               1          2
     1  O   -0.309128   0.759263
     2  O   -0.690872   0.240737
     3  O   -0.690872   0.240737
     4  O   -0.309128   0.759263
 Sum of Mulliken charges =  -2.00000   2.00000

 Dipole moment (field-independent basis, Debye):
    X=             -0.0000    Y=              0.0000    Z=             -0.0000  Tot=              0.0000
 Quadrupole moment (field-independent basis, Debye-Ang):
   XX=            -25.0982   YY=            -25.0982   ZZ=            -72.4161
   XY=              0.0000   XZ=              0.0000   YZ=              0.0000

 Normal termination of Gaussian 16 at Sat Dec 31 20:47:55 2022.
