 Gaussian 16, Revision A.03,
 Gaussian 16:  ES64L-G16RevA.03 25-Dec-2016

 -------------------------------------
 #p CCSD(T)/cc-pVTZ Guess=Read SCF=XQC
 -------------------------------------

 ---------
 O2_O2_155
 ---------
 Symbolic Z-matrix:
 Charge = -2 Multiplicity = 3

                         Standard orientation:
 ---------------------------------------------------------------------
 Center     Atomic      Atomic             Coordinates (Angstroms)
 Number     Number       Type             X           Y           Z
 ---------------------------------------------------------------------
      1          8           0        0.000000    0.000000    1.889866
      2          8           0        0.000000    0.000000    3.242246
      3          8           0        0.000000    0.000000   -3.242246
      4          8           0        0.000000    0.000000   -1.889866
 ---------------------------------------------------------------------

 SCF Done:  E(UHF) =  -298.954328286     A.U. after   11 cycles
 E2 =    -0.1176043207D+01 EUMP2 =    -0.30013037149328D+03
 CCSD(T)
 CCSD(T)= -0.30010961301D+03

 The electronic state is 3-SGG.
 Alpha  occ. eigenvalues --  -20.21531 -20.21531 -20.18473 -20.18473  -1.05917
 Alpha  occ. eigenvalues --   -1.05907  -0.69428  -0.69359  -0.24482  -0.24482
 Alpha  occ. eigenvalues --   -0.24451  -0.24451  -0.18861  -0.18520  -0.03434
 Alpha  occ. eigenvalues --   -0.03434  -0.03370  -0.03370
 Alpha virt. eigenvalues --    0.70821   0.75760   1.07882   1.14009   1.14009
 Alpha virt. eigenvalues --    1.14616   1.14616   1.14941   1.16314   1.22252
 Alpha virt. eigenvalues --    1.22252   1.23897   1.23897   1.29910   1.36368

  Beta  occ. eigenvalues --  -20.17910 -20.17909 -20.16003 -20.16003  -0.97772
  Beta  occ. eigenvalues --   -0.97735  -0.58190  -0.57921  -0.16362  -0.15922
  Beta  occ. eigenvalues --   -0.10087  -0.10087  -0.09632  -0.09632   0.24282
  Beta  occ. eigenvalues --    0.24282
  Beta virt. eigenvalues --    0.35670   0.35670   0.73576   0.79346   1.10154
  Beta virt. eigenvalues --    1.16113   1.17067   1.18990   1.18990   1.19414
  Beta virt. eigenvalues --    1.19414   1.27553   1.27553   1.29323   1.29323

 Mulliken charges and spin densities:
               1          2
     1  O   -0.409069   0.620962
     2  O   -0.590931   0.379038
     3  O   -0.590931   0.379038
     4  O   -0.409069   0.620962
 Sum of Mulliken charges =  -2.00000   2.00000

 Dipole moment (field-independent basis, Debye):
    X=             -0.0000    Y=             -0.0000    Z=              0.0000  Tot=              0.0000
 Quadrupole moment (field-independent basis, Debye-Ang):
   XX=            -24.9664   YY=            -24.9664   ZZ=           -100.3746
   XY=              0.0000   XZ=              0.0000   YZ=              0.0000

 Normal termination of Gaussian 16 at Sat Dec 31 22:52:53 2022.
