 Gaussian 16, Revision A.03,
 Gaussian 16:  ES64L-G16RevA.03 25-Dec-2016

 -------------------------------------
 #p CCSD(T)/cc-pVTZ Guess=Read SCF=XQC
 -------------------------------------

 ---------
 O2_O2_176
 ---------
 Symbolic Z-matrix:
 Charge = -2 Multiplicity = 3

                         Standard orientation:
 ---------------------------------------------------------------------
 Center     Atomic      Atomic             Coordinates (Angstroms)
 Number     Number       Type             X           Y           Z
 ---------------------------------------------------------------------
      1          8           0        0.000000    0.000000    2.038531
      2          8           0        0.000000    0.000000    3.390911
      3          8           0        0.000000    0.000000   -3.390911
      4          8           0        0.000000    0.000000   -2.038531
 ---------------------------------------------------------------------

 SCF Done:  E(UHF) =  -298.955622971     A.U. after   11 cycles
 E2 =    -0.1194492298D+01 EUMP2 =    -0.30015011526829D+03
 CCSD(T)
 CCSD(T)= -0.30011675382D+03

 The electronic state is 3-SGG.
 Alpha  occ. eigenvalues --  -20.21866 -20.21866 -20.19209 -20.19209  -1.06423
 Alpha  occ. eigenvalues --   -1.06419  -0.69971  -0.69939  -0.24974  -0.24974
 Alpha  occ. eigenvalues --   -0.24960  -0.24960  -0.19348  -0.19164  -0.03979
 Alpha  occ. eigenvalues --   -0.03979  -0.03948  -0.03948
 Alpha virt. eigenvalues --    0.71071   0.74464   1.09422   1.13661   1.13661
 Alpha virt. eigenvalues --    1.13948   1.13948   1.14381   1.16207   1.22090
 Alpha virt. eigenvalues --    1.22090   1.22887   1.22887   1.24113   1.35866

  Beta  occ. eigenvalues --  -20.18321 -20.18321 -20.16671 -20.16671  -0.98307
  Beta  occ. eigenvalues --   -0.98284  -0.58711  -0.58531  -0.16839  -0.16597
  Beta  occ. eigenvalues --   -0.10570  -0.10570  -0.10200  -0.10200   0.24111
  Beta  occ. eigenvalues --    0.24111
  Beta virt. eigenvalues --    0.34668   0.34668   0.73958   0.77932   1.11611
  Beta virt. eigenvalues --    1.15654   1.16935   1.18591   1.18591   1.18801
  Beta virt. eigenvalues --    1.18801   1.25383   1.27416   1.27416   1.28264

 Mulliken charges and spin densities:
               1          2
     1  O   -0.419061   0.606780
     2  O   -0.580939   0.393220
     3  O   -0.580939   0.393220
     4  O   -0.419061   0.606780
 Sum of Mulliken charges =  -2.00000   2.00000

 Dipole moment (field-independent basis, Debye):
    X=             -0.0000    Y=             -0.0000    Z=             -0.0000  Tot=              0.0000
 Quadrupole moment (field-independent basis, Debye-Ang):
   XX=            -24.9574   YY=            -24.9574   ZZ=           -107.5591
   XY=              0.0000   XZ=              0.0000   YZ=              0.0000

 Normal termination of Gaussian 16 at Sat Dec 31 23:18:14 2022.
