 Gaussian 16, Revision A.03,
 Gaussian 16:  ES64L-G16RevA.03 25-Dec-2016

 -------------------------------------
 #p CCSD(T)/cc-pVTZ Guess=Read SCF=XQC
 -------------------------------------

 --------
 O2_O2_25
 --------
 Symbolic Z-matrix:
 Charge = -2 Multiplicity = 3

                         Standard orientation:
 ---------------------------------------------------------------------
 Center     Atomic      Atomic             Coordinates (Angstroms)
 Number     Number       Type             X           Y           Z
 ---------------------------------------------------------------------
      1          8           0        0.000000    0.000000    0.969558
      2          8           0        0.000000    0.000000    2.321938
      3          8           0        0.000000    0.000000   -2.321938
      4          8           0        0.000000    0.000000   -0.969558
 ---------------------------------------------------------------------

 SCF Done:  E(UHF) =  -298.962939435     A.U. after   12 cycles
 E2 =    -0.1034009658D+01 EUMP2 =    -0.29999694909276D+03
 CCSD(T)
 CCSD(T)= -0.30003547847D+03

 The electronic state is 3-SGG.
 Alpha  occ. eigenvalues --  -20.19883 -20.19881 -20.10054 -20.10054  -1.03232
 Alpha  occ. eigenvalues --   -1.01187  -0.67339  -0.61447  -0.22383  -0.22383
 Alpha  occ. eigenvalues --   -0.19617  -0.19617  -0.18958  -0.07325   0.01231
 Alpha  occ. eigenvalues --    0.01231   0.03355   0.03355
 Alpha virt. eigenvalues --    0.77832   0.85722   1.15158   1.15158   1.16713
 Alpha virt. eigenvalues --    1.18328   1.21245   1.21245   1.25329   1.25329
 Alpha virt. eigenvalues --    1.38507   1.38821   1.40079   1.40079   1.45428

  Beta  occ. eigenvalues --  -20.14998 -20.14989 -20.08585 -20.08585  -0.93791
  Beta  occ. eigenvalues --   -0.92092  -0.58122  -0.49108  -0.16492  -0.06898
  Beta  occ. eigenvalues --   -0.06898  -0.03871  -0.03871  -0.03756   0.22234
  Beta  occ. eigenvalues --    0.22234
  Beta virt. eigenvalues --    0.49509   0.49509   0.81763   0.89601   1.18226
  Beta virt. eigenvalues --    1.18583   1.22381   1.22381   1.24782   1.24782
  Beta virt. eigenvalues --    1.29606   1.29606   1.39058   1.39710   1.46044

 Mulliken charges and spin densities:
               1          2
     1  O   -0.249855   0.818722
     2  O   -0.750145   0.181278
     3  O   -0.750145   0.181278
     4  O   -0.249855   0.818722
 Sum of Mulliken charges =  -2.00000   2.00000

 Dipole moment (field-independent basis, Debye):
    X=             -0.0000    Y=             -0.0000    Z=              0.0000  Tot=              0.0000
 Quadrupole moment (field-independent basis, Debye-Ang):
   XX=            -25.1156   YY=            -25.1156   ZZ=            -67.2375
   XY=              0.0000   XZ=              0.0000   YZ=              0.0000

 Normal termination of Gaussian 16 at Sat Dec 31 20:14:41 2022.
