 Gaussian 16, Revision A.03,
 Gaussian 16:  ES64L-G16RevA.03 25-Dec-2016

 -------------------------------------
 #p CCSD(T)/cc-pVTZ Guess=Read SCF=XQC
 -------------------------------------

 --------
 O2_O2_70
 --------
 Symbolic Z-matrix:
 Charge = -2 Multiplicity = 3

                         Standard orientation:
 ---------------------------------------------------------------------
 Center     Atomic      Atomic             Coordinates (Angstroms)
 Number     Number       Type             X           Y           Z
 ---------------------------------------------------------------------
      1          8           0        0.000000    0.000000    1.288126
      2          8           0        0.000000    0.000000    2.640506
      3          8           0        0.000000    0.000000   -2.640506
      4          8           0        0.000000    0.000000   -1.288126
 ---------------------------------------------------------------------

 SCF Done:  E(UHF) =  -298.960607590     A.U. after   12 cycles
 E2 =    -0.1085691128D+01 EUMP2 =    -0.30004629871812D+03
 CCSD(T)
 CCSD(T)= -0.30007226495D+03

 The electronic state is 3-SGG.
 Alpha  occ. eigenvalues --  -20.20582 -20.20582 -20.14103 -20.14103  -1.03756
 Alpha  occ. eigenvalues --   -1.03450  -0.67117  -0.65845  -0.22554  -0.22554
 Alpha  occ. eigenvalues --   -0.21975  -0.21975  -0.17474  -0.14062  -0.00748
 Alpha  occ. eigenvalues --   -0.00748  -0.00053  -0.00053
 Alpha virt. eigenvalues --    0.74834   0.81315   1.13528   1.13528   1.15771
 Alpha virt. eigenvalues --    1.17329   1.18537   1.18537   1.20956   1.22576
 Alpha virt. eigenvalues --    1.22576   1.33322   1.33322   1.38257   1.39020

  Beta  occ. eigenvalues --  -20.16281 -20.16277 -20.12150 -20.12150  -0.95139
  Beta  occ. eigenvalues --   -0.94772  -0.56291  -0.53979  -0.15126  -0.11084
  Beta  occ. eigenvalues --   -0.07885  -0.07885  -0.06529  -0.06529   0.24201
  Beta  occ. eigenvalues --    0.24201
  Beta virt. eigenvalues --    0.42360   0.42360   0.78169   0.85204   1.16900
  Beta virt. eigenvalues --    1.17858   1.19916   1.19916   1.22665   1.22665
  Beta virt. eigenvalues --    1.23082   1.26963   1.26963   1.38637   1.39331

 Mulliken charges and spin densities:
               1          2
     1  O   -0.335502   0.725978
     2  O   -0.664498   0.274022
     3  O   -0.664498   0.274022
     4  O   -0.335502   0.725978
 Sum of Mulliken charges =  -2.00000   2.00000

 Dipole moment (field-independent basis, Debye):
    X=             -0.0000    Y=              0.0000    Z=              0.0000  Tot=              0.0000
 Quadrupole moment (field-independent basis, Debye-Ang):
   XX=            -25.0674   YY=            -25.0674   ZZ=            -76.2194
   XY=              0.0000   XZ=              0.0000   YZ=              0.0000

 Normal termination of Gaussian 16 at Sat Dec 31 21:08:13 2022.
