 Gaussian 16, Revision A.03,
 Gaussian 16:  ES64L-G16RevA.03 25-Dec-2016

 -------------------------------------
 #p CCSD(T)/cc-pVTZ Guess=Read SCF=XQC
 -------------------------------------

 --------
 O2_O2_80
 --------
 Symbolic Z-matrix:
 Charge = -2 Multiplicity = 3

                         Standard orientation:
 ---------------------------------------------------------------------
 Center     Atomic      Atomic             Coordinates (Angstroms)
 Number     Number       Type             X           Y           Z
 ---------------------------------------------------------------------
      1          8           0        0.000000    0.000000    1.358919
      2          8           0        0.000000    0.000000    2.711299
      3          8           0        0.000000    0.000000   -2.711299
      4          8           0        0.000000    0.000000   -1.358919
 ---------------------------------------------------------------------

 SCF Done:  E(UHF) =  -298.958361000     A.U. after   12 cycles
 E2 =    -0.1097782248D+01 EUMP2 =    -0.30005614324797D+03
 CCSD(T)
 CCSD(T)= -0.30007749355D+03

 The electronic state is 3-SGG.
 Alpha  occ. eigenvalues --  -20.20660 -20.20660 -20.14782 -20.14782  -1.03995
 Alpha  occ. eigenvalues --   -1.03793  -0.67349  -0.66442  -0.22739  -0.22739
 Alpha  occ. eigenvalues --   -0.22325  -0.22325  -0.17493  -0.14881  -0.01119
 Alpha  occ. eigenvalues --   -0.01119  -0.00578  -0.00578
 Alpha virt. eigenvalues --    0.74057   0.80599   1.13664   1.13664   1.15432
 Alpha virt. eigenvalues --    1.15694   1.18001   1.18001   1.18630   1.22324
 Alpha virt. eigenvalues --    1.22324   1.31761   1.31761   1.38056   1.38682

  Beta  occ. eigenvalues --  -20.16478 -20.16475 -20.12741 -20.12741  -0.95484
  Beta  occ. eigenvalues --   -0.95214  -0.56396  -0.54663  -0.15114  -0.11980
  Beta  occ. eigenvalues --   -0.08152  -0.08152  -0.06986  -0.06986   0.24353
  Beta  occ. eigenvalues --    0.24353
  Beta virt. eigenvalues --    0.41227   0.41227   0.77238   0.84468   1.16661
  Beta virt. eigenvalues --    1.16806   1.19779   1.19779   1.20145   1.22245
  Beta virt. eigenvalues --    1.22245   1.26874   1.26874   1.37688   1.37688

 Mulliken charges and spin densities:
               1          2
     1  O   -0.348410   0.708328
     2  O   -0.651590   0.291672
     3  O   -0.651590   0.291672
     4  O   -0.348410   0.708328
 Sum of Mulliken charges =  -2.00000   2.00000

 Dipole moment (field-independent basis, Debye):
    X=             -0.0000    Y=              0.0000    Z=             -0.0000  Tot=              0.0000
 Quadrupole moment (field-independent basis, Debye-Ang):
   XX=            -25.0493   YY=            -25.0493   ZZ=            -78.6357
   XY=              0.0000   XZ=              0.0000   YZ=              0.0000

 Normal termination of Gaussian 16 at Sat Dec 31 21:19:52 2022.
