 Gaussian 16, Revision A.03,
 Gaussian 16:  ES64L-G16RevA.03 25-Dec-2016

 -------------------------------------
 #p CCSD(T)/cc-pVTZ Guess=Read SCF=XQC
 -------------------------------------

 ---------
 O2_O2_261
 ---------
 Symbolic Z-matrix:
 Charge = -2 Multiplicity = 3

                         Standard orientation:
 ---------------------------------------------------------------------
 Center     Atomic      Atomic             Coordinates (Angstroms)
 Number     Number       Type             X           Y           Z
 ---------------------------------------------------------------------
      1          8           0        0.000000    0.000000    2.640271
      2          8           0        0.000000    0.000000    3.992651
      3          8           0        0.000000    0.000000   -3.992651
      4          8           0        0.000000    0.000000   -2.640271
 ---------------------------------------------------------------------

 SCF Done:  E(UHF) =  -298.962555037     A.U. after   11 cycles
 E2 =    -0.1262611495D+01 EUMP2 =    -0.30022516653127D+03
 CCSD(T)
 CCSD(T)= -0.30013954171D+03

 The electronic state is 3-SGG.
 Alpha  occ. eigenvalues --  -20.23180 -20.23180 -20.21458 -20.21458  -1.08141
 Alpha  occ. eigenvalues --   -1.08141  -0.71781  -0.71780  -0.26671  -0.26671
 Alpha  occ. eigenvalues --   -0.26671  -0.26671  -0.21092  -0.21084  -0.05785
 Alpha  occ. eigenvalues --   -0.05785  -0.05784  -0.05784
 Alpha virt. eigenvalues --    0.70845   0.71063   1.11106   1.11432   1.12085
 Alpha virt. eigenvalues --    1.12085   1.12091   1.12091   1.16063   1.16361
 Alpha virt. eigenvalues --    1.20676   1.20676   1.20694   1.20694   1.34182

  Beta  occ. eigenvalues --  -20.19809 -20.19809 -20.18747 -20.18746  -1.00062
  Beta  occ. eigenvalues --   -1.00055  -0.60465  -0.60403  -0.18574  -0.18557
  Beta  occ. eigenvalues --   -0.12200  -0.12200  -0.12009  -0.12009   0.23383
  Beta  occ. eigenvalues --    0.23383
  Beta virt. eigenvalues --    0.31715   0.31715   0.74009   0.74266   1.12976
  Beta virt. eigenvalues --    1.13247   1.16930   1.17001   1.17001   1.17007
  Beta virt. eigenvalues --    1.17007   1.17283   1.25999   1.25999   1.26019

 Mulliken charges and spin densities:
               1          2
     1  O   -0.445905   0.570676
     2  O   -0.554095   0.429324
     3  O   -0.554095   0.429324
     4  O   -0.445905   0.570676
 Sum of Mulliken charges =  -2.00000   2.00000

 Dipole moment (field-independent basis, Debye):
    X=             -0.0000    Y=              0.0000    Z=             -0.0000  Tot=              0.0000
 Quadrupole moment (field-independent basis, Debye-Ang):
   XX=            -24.9438   YY=            -24.9438   ZZ=           -141.2907
   XY=              0.0000   XZ=              0.0000   YZ=              0.0000

 Normal termination of Gaussian 16 at Sun Jan  1 01:03:36 2023.
