 Gaussian 16, Revision A.03,
 Gaussian 16:  ES64L-G16RevA.03 25-Dec-2016

 -------------------------------------
 #p CCSD(T)/cc-pVTZ Guess=Read SCF=XQC
 -------------------------------------

 -------
 O2_O2_6
 -------
 Symbolic Z-matrix:
 Charge = -2 Multiplicity = 3

                         Standard orientation:
 ---------------------------------------------------------------------
 Center     Atomic      Atomic             Coordinates (Angstroms)
 Number     Number       Type             X           Y           Z
 ---------------------------------------------------------------------
      1          8           0        0.000000    0.000000    0.835051
      2          8           0        0.000000    0.000000    2.187431
      3          8           0        0.000000    0.000000   -2.187431
      4          8           0        0.000000    0.000000   -0.835051
 ---------------------------------------------------------------------

 SCF Done:  E(UHF) =  -298.930635137     A.U. after   13 cycles
 E2 =    -0.1022578401D+01 EUMP2 =    -0.29995321353729D+03
 CCSD(T)
 CCSD(T)= -0.29999057108D+03

 The electronic state is 3-SGG.
 Alpha  occ. eigenvalues --  -20.19334 -20.19333 -20.07494 -20.07494  -1.04333
 Alpha  occ. eigenvalues --   -0.99479  -0.69294  -0.58080  -0.23474  -0.23474
 Alpha  occ. eigenvalues --   -0.20792  -0.17851  -0.17851  -0.01108   0.02255
 Alpha  occ. eigenvalues --    0.02255   0.05652   0.05652
 Alpha virt. eigenvalues --    0.78666   0.89101   1.16651   1.16651   1.17546
 Alpha virt. eigenvalues --    1.18142   1.22702   1.22702   1.27594   1.27594
 Alpha virt. eigenvalues --    1.38167   1.38713   1.42325   1.42325   1.52548

  Beta  occ. eigenvalues --  -20.14262 -20.14246 -20.06236 -20.06236  -0.94121
  Beta  occ. eigenvalues --   -0.90415  -0.61841  -0.45629  -0.17772  -0.07059
  Beta  occ. eigenvalues --   -0.07059  -0.02199  -0.02199   0.02956   0.20294
  Beta  occ. eigenvalues --    0.20294
  Beta virt. eigenvalues --    0.53816   0.53816   0.82701   0.92810   1.18176
  Beta virt. eigenvalues --    1.19745   1.23648   1.23648   1.25995   1.25995
  Beta virt. eigenvalues --    1.32121   1.32121   1.38778   1.39205   1.48554

 Mulliken charges and spin densities:
               1          2
     1  O   -0.191121   0.852932
     2  O   -0.808879   0.147068
     3  O   -0.808879   0.147068
     4  O   -0.191121   0.852932
 Sum of Mulliken charges =  -2.00000   2.00000

 Dipole moment (field-independent basis, Debye):
    X=             -0.0000    Y=              0.0000    Z=              0.0000  Tot=              0.0000
 Quadrupole moment (field-independent basis, Debye-Ang):
   XX=            -25.0479   YY=            -25.0479   ZZ=            -64.9172
   XY=              0.0000   XZ=              0.0000   YZ=              0.0000

 Normal termination of Gaussian 16 at Sat Dec 31 19:52:54 2022.
