 Gaussian 16, Revision A.03,
 Gaussian 16:  ES64L-G16RevA.03 25-Dec-2016

 -------------------------------------
 #p CCSD(T)/cc-pVTZ Guess=Read SCF=XQC
 -------------------------------------

 ---------
 O2_O2_202
 ---------
 Symbolic Z-matrix:
 Charge = -2 Multiplicity = 3

                         Standard orientation:
 ---------------------------------------------------------------------
 Center     Atomic      Atomic             Coordinates (Angstroms)
 Number     Number       Type             X           Y           Z
 ---------------------------------------------------------------------
      1          8           0        0.000000    0.000000    2.222593
      2          8           0        0.000000    0.000000    3.574973
      3          8           0        0.000000    0.000000   -3.574973
      4          8           0        0.000000    0.000000   -2.222593
 ---------------------------------------------------------------------

 SCF Done:  E(UHF) =  -298.957669968     A.U. after   10 cycles
 E2 =    -0.1216145480D+01 EUMP2 =    -0.30017381544827D+03
 CCSD(T)
 CCSD(T)= -0.30012467355D+03

 The electronic state is 3-SGG.
 Alpha  occ. eigenvalues --  -20.22290 -20.22290 -20.20005 -20.20005  -1.07007
 Alpha  occ. eigenvalues --   -1.07006  -0.70592  -0.70580  -0.25548  -0.25548
 Alpha  occ. eigenvalues --   -0.25543  -0.25543  -0.19929  -0.19850  -0.04599
 Alpha  occ. eigenvalues --   -0.04599  -0.04587  -0.04587
 Alpha virt. eigenvalues --    0.71293   0.73071   1.10840   1.13166   1.13166
 Alpha virt. eigenvalues --    1.13268   1.13268   1.13458   1.16310   1.19794
 Alpha virt. eigenvalues --    1.21715   1.21715   1.22003   1.22003   1.35295

  Beta  occ. eigenvalues --  -20.18815 -20.18815 -20.17400 -20.17400  -0.98911
  Beta  occ. eigenvalues --   -0.98896  -0.59310  -0.59190  -0.17414  -0.17304
  Beta  occ. eigenvalues --   -0.11124  -0.11124  -0.10829  -0.10829   0.23881
  Beta  occ. eigenvalues --    0.23881
  Beta virt. eigenvalues --    0.33610   0.33610   0.74326   0.76410   1.12896
  Beta virt. eigenvalues --    1.14933   1.17063   1.18077   1.18077   1.18155
  Beta virt. eigenvalues --    1.18155   1.20957   1.27047   1.27047   1.27350

 Mulliken charges and spin densities:
               1          2
     1  O   -0.429136   0.592864
     2  O   -0.570864   0.407136
     3  O   -0.570864   0.407136
     4  O   -0.429136   0.592864
 Sum of Mulliken charges =  -2.00000   2.00000

 Dipole moment (field-independent basis, Debye):
    X=             -0.0000    Y=              0.0000    Z=              0.0000  Tot=              0.0000
 Quadrupole moment (field-independent basis, Debye-Ang):
   XX=            -24.9507   YY=            -24.9507   ZZ=           -117.0928
   XY=              0.0000   XZ=              0.0000   YZ=              0.0000

 13424\PMP3-0=-300.169524\MP4SDQ=-299.8707795\CCSD=-300.010931\CCSD(T)=
 Normal termination of Gaussian 16 at Sat Dec 31 23:51:10 2022.
