 Gaussian 16, Revision A.03,
 Gaussian 16:  ES64L-G16RevA.03 25-Dec-2016

 -------------------------------------
 #p CCSD(T)/cc-pVTZ Guess=Read SCF=XQC
 -------------------------------------

 ---------
 O2_O2_106
 ---------
 Symbolic Z-matrix:
 Charge = -2 Multiplicity = 3

                         Standard orientation:
 ---------------------------------------------------------------------
 Center     Atomic      Atomic             Coordinates (Angstroms)
 Number     Number       Type             X           Y           Z
 ---------------------------------------------------------------------
      1          8           0        0.000000    0.000000    1.542981
      2          8           0        0.000000    0.000000    2.895361
      3          8           0        0.000000    0.000000   -2.895361
      4          8           0        0.000000    0.000000   -1.542981
 ---------------------------------------------------------------------

 SCF Done:  E(UHF) =  -298.954616893     A.U. after   11 cycles
 E2 =    -0.1127544059D+01 EUMP2 =    -0.30008216095158D+03
 CCSD(T)
 CCSD(T)= -0.30008988376D+03

 The electronic state is 3-SGG.
 Alpha  occ. eigenvalues --  -20.20886 -20.20886 -20.16304 -20.16304  -1.04658
 Alpha  occ. eigenvalues --   -1.04588  -0.68054  -0.67681  -0.23304  -0.23304
 Alpha  occ. eigenvalues --   -0.23132  -0.23132  -0.17811  -0.16506  -0.01999
 Alpha  occ. eigenvalues --   -0.01999  -0.01726  -0.01726
 Alpha virt. eigenvalues --    0.72110   0.78891   1.09229   1.14131   1.14131
 Alpha virt. eigenvalues --    1.15598   1.16678   1.16678   1.17350   1.22121
 Alpha virt. eigenvalues --    1.22121   1.28146   1.28146   1.37470   1.37845

  Beta  occ. eigenvalues --  -20.16964 -20.16962 -20.14071 -20.14071  -0.96343
  Beta  occ. eigenvalues --   -0.96218  -0.56925  -0.56076  -0.15367  -0.13756
  Beta  occ. eigenvalues --   -0.08849  -0.08849  -0.08039  -0.08039   0.24500
  Beta  occ. eigenvalues --    0.24500
  Beta virt. eigenvalues --    0.38815   0.38815   0.74943   0.82694   1.11386
  Beta virt. eigenvalues --    1.16694   1.18173   1.19624   1.19624   1.21185
  Beta virt. eigenvalues --    1.21185   1.27085   1.27085   1.33848   1.33848

 Mulliken charges and spin densities:
               1          2
     1  O   -0.375486   0.669712
     2  O   -0.624514   0.330288
     3  O   -0.624514   0.330288
     4  O   -0.375486   0.669712
 Sum of Mulliken charges =  -2.00000   2.00000

 Dipole moment (field-independent basis, Debye):
    X=             -0.0000    Y=             -0.0000    Z=              0.0000  Tot=              0.0000
 Quadrupole moment (field-independent basis, Debye-Ang):
   XX=            -25.0094   YY=            -25.0094   ZZ=            -85.4663
   XY=              0.0000   XZ=              0.0000   YZ=              0.0000

 Normal termination of Gaussian 16 at Sat Dec 31 21:51:34 2022.
