 Gaussian 16, Revision A.03,
 Gaussian 16:  ES64L-G16RevA.03 25-Dec-2016

 -------------------------------------
 #p CCSD(T)/cc-pVTZ Guess=Read SCF=XQC
 -------------------------------------

 ---------
 O2_O2_204
 ---------
 Symbolic Z-matrix:
 Charge = -2 Multiplicity = 3

                         Standard orientation:
 ---------------------------------------------------------------------
 Center     Atomic      Atomic             Coordinates (Angstroms)
 Number     Number       Type             X           Y           Z
 ---------------------------------------------------------------------
      1          8           0        0.000000    0.000000    2.236751
      2          8           0        0.000000    0.000000    3.589131
      3          8           0        0.000000    0.000000   -3.589131
      4          8           0        0.000000    0.000000   -2.236751
 ---------------------------------------------------------------------

 SCF Done:  E(UHF) =  -298.957837095     A.U. after   10 cycles
 E2 =    -0.1217770260D+01 EUMP2 =    -0.30017560735515D+03
 CCSD(T)
 CCSD(T)= -0.30012524440D+03

 The electronic state is 3-SGG.
 Alpha  occ. eigenvalues --  -20.22322 -20.22322 -20.20062 -20.20062  -1.07050
 Alpha  occ. eigenvalues --   -1.07049  -0.70637  -0.70626  -0.25590  -0.25590
 Alpha  occ. eigenvalues --   -0.25585  -0.25585  -0.19973  -0.19898  -0.04644
 Alpha  occ. eigenvalues --   -0.04644  -0.04633  -0.04633
 Alpha virt. eigenvalues --    0.71298   0.72977   1.10905   1.13127   1.13127
 Alpha virt. eigenvalues --    1.13221   1.13221   1.13380   1.16320   1.19567
 Alpha virt. eigenvalues --    1.21682   1.21682   1.21946   1.21946   1.35253

  Beta  occ. eigenvalues --  -20.18852 -20.18851 -20.17453 -20.17452  -0.98955
  Beta  occ. eigenvalues --   -0.98940  -0.59354  -0.59237  -0.17457  -0.17354
  Beta  occ. eigenvalues --   -0.11164  -0.11164  -0.10874  -0.10874   0.23864
  Beta  occ. eigenvalues --    0.23864
  Beta virt. eigenvalues --    0.33536   0.33536   0.74340   0.76308   1.12950
  Beta virt. eigenvalues --    1.14872   1.17079   1.18037   1.18037   1.18110
  Beta virt. eigenvalues --    1.18110   1.20719   1.27013   1.27013   1.27292

 Mulliken charges and spin densities:
               1          2
     1  O   -0.429828   0.591926
     2  O   -0.570172   0.408074
     3  O   -0.570172   0.408074
     4  O   -0.429828   0.591926
 Sum of Mulliken charges =  -2.00000   2.00000

 Dipole moment (field-independent basis, Debye):
    X=             -0.0000    Y=              0.0000    Z=             -0.0000  Tot=              0.0000
 Quadrupole moment (field-independent basis, Debye-Ang):
   XX=            -24.9503   YY=            -24.9503   ZZ=           -117.8550
   XY=              0.0000   XZ=              0.0000   YZ=              0.0000

 Normal termination of Gaussian 16 at Sat Dec 31 23:53:42 2022.
