 Gaussian 16, Revision A.03,
 Gaussian 16:  ES64L-G16RevA.03 25-Dec-2016

 -------------------------------------
 #p CCSD(T)/cc-pVTZ Guess=Read SCF=XQC
 -------------------------------------

 -------
 O2_O2_9
 -------
 Symbolic Z-matrix:
 Charge = -2 Multiplicity = 3

                         Standard orientation:
 ---------------------------------------------------------------------
 Center     Atomic      Atomic             Coordinates (Angstroms)
 Number     Number       Type             X           Y           Z
 ---------------------------------------------------------------------
      1          8           0        0.000000    0.000000    0.856289
      2          8           0        0.000000    0.000000    2.208669
      3          8           0        0.000000    0.000000   -2.208669
      4          8           0        0.000000    0.000000   -0.856289
 ---------------------------------------------------------------------

 SCF Done:  E(UHF) =  -298.939288726     A.U. after   11 cycles
 E2 =    -0.1023396823D+01 EUMP2 =    -0.29996268554935D+03
 CCSD(T)
 CCSD(T)= -0.30000062561D+03

 The electronic state is 3-SGG.
 Alpha  occ. eigenvalues --  -20.19410 -20.19409 -20.07954 -20.07953  -1.04005
 Alpha  occ. eigenvalues --   -0.99793  -0.68844  -0.58697  -0.23184  -0.23184
 Alpha  occ. eigenvalues --   -0.20451  -0.18173  -0.18173  -0.02332   0.02083
 Alpha  occ. eigenvalues --    0.02083   0.05242   0.05242
 Alpha virt. eigenvalues --    0.78582   0.88446   1.16445   1.16445   1.17373
 Alpha virt. eigenvalues --    1.18227   1.22452   1.22452   1.27183   1.27183
 Alpha virt. eigenvalues --    1.38337   1.38749   1.42009   1.42009   1.51580

  Beta  occ. eigenvalues --  -20.14362 -20.14348 -20.06664 -20.06664  -0.93950
  Beta  occ. eigenvalues --   -0.90709  -0.61044  -0.46250  -0.17554  -0.06963
  Beta  occ. eigenvalues --   -0.06963  -0.02499  -0.02499   0.01637   0.20662
  Beta  occ. eigenvalues --    0.20662
  Beta virt. eigenvalues --    0.53081   0.53081   0.82617   0.92199   1.18302
  Beta virt. eigenvalues --    1.19418   1.23502   1.23502   1.25780   1.25780
  Beta virt. eigenvalues --    1.31696   1.31696   1.38847   1.39374   1.48232

 Mulliken charges and spin densities:
               1          2
     1  O   -0.202173   0.848490
     2  O   -0.797827   0.151510
     3  O   -0.797827   0.151510
     4  O   -0.202173   0.848490
 Sum of Mulliken charges =  -2.00000   2.00000

 Dipole moment (field-independent basis, Debye):
    X=             -0.0000    Y=              0.0000    Z=              0.0000  Tot=              0.0000
 Quadrupole moment (field-independent basis, Debye-Ang):
   XX=            -25.0660   YY=            -25.0660   ZZ=            -65.1904
   XY=              0.0000   XZ=              0.0000   YZ=              0.0000

 Normal termination of Gaussian 16 at Sat Dec 31 19:56:25 2022.
