 Gaussian 16, Revision A.03,
 Gaussian 16:  ES64L-G16RevA.03 25-Dec-2016

 -------------------------------------
 #p CCSD(T)/cc-pVTZ Guess=Read SCF=XQC
 -------------------------------------

 ---------
 O2_O2_222
 ---------
 Symbolic Z-matrix:
 Charge = -2 Multiplicity = 3

                         Standard orientation:
 ---------------------------------------------------------------------
 Center     Atomic      Atomic             Coordinates (Angstroms)
 Number     Number       Type             X           Y           Z
 ---------------------------------------------------------------------
      1          8           0        0.000000    0.000000    2.364178
      2          8           0        0.000000    0.000000    3.716558
      3          8           0        0.000000    0.000000   -3.716558
      4          8           0        0.000000    0.000000   -2.364178
 ---------------------------------------------------------------------

 SCF Done:  E(UHF) =  -298.959358013     A.U. after   11 cycles
 E2 =    -0.1232196349D+01 EUMP2 =    -0.30019155436180D+03
 CCSD(T)
 CCSD(T)= -0.30013015588D+03

 The electronic state is 3-SGG.
 Alpha  occ. eigenvalues --  -20.22607 -20.22607 -20.20546 -20.20546  -1.07422
 Alpha  occ. eigenvalues --   -1.07421  -0.71028  -0.71023  -0.25957  -0.25957
 Alpha  occ. eigenvalues --   -0.25955  -0.25955  -0.20350  -0.20312  -0.05034
 Alpha  occ. eigenvalues --   -0.05034  -0.05029  -0.05029
 Alpha virt. eigenvalues --    0.71263   0.72221   1.11250   1.12673   1.12782
 Alpha virt. eigenvalues --    1.12782   1.12824   1.12824   1.16368   1.18015
 Alpha virt. eigenvalues --    1.21366   1.21366   1.21486   1.21486   1.34890

  Beta  occ. eigenvalues --  -20.19174 -20.19174 -20.17900 -20.17900  -0.99333
  Beta  occ. eigenvalues --   -0.99322  -0.59733  -0.59640  -0.17833  -0.17775
  Beta  occ. eigenvalues --   -0.11516  -0.11516  -0.11264  -0.11264   0.23705
  Beta  occ. eigenvalues --    0.23705
  Beta virt. eigenvalues --    0.32901   0.32901   0.74368   0.75491   1.13205
  Beta virt. eigenvalues --    1.14310   1.17176   1.17691   1.17691   1.17726
  Beta virt. eigenvalues --    1.17726   1.19064   1.26695   1.26695   1.26823

 Mulliken charges and spin densities:
               1          2
     1  O   -0.435610   0.584176
     2  O   -0.564390   0.415824
     3  O   -0.564390   0.415824
     4  O   -0.435610   0.584176
 Sum of Mulliken charges =  -2.00000   2.00000

 Dipole moment (field-independent basis, Debye):
    X=             -0.0000    Y=             -0.0000    Z=              0.0000  Tot=              0.0000
 Quadrupole moment (field-independent basis, Debye-Ang):
   XX=            -24.9475   YY=            -24.9475   ZZ=           -124.8988
   XY=              0.0000   XZ=              0.0000   YZ=              0.0000

 Normal termination of Gaussian 16 at Sun Jan  1 00:15:43 2023.
