 Gaussian 16, Revision A.03,
 Gaussian 16:  ES64L-G16RevA.03 25-Dec-2016

 -------------------------------------
 #p CCSD(T)/cc-pVTZ Guess=Read SCF=XQC
 -------------------------------------

 ---------
 O2_O2_134
 ---------
 Symbolic Z-matrix:
 Charge = -2 Multiplicity = 3

                         Standard orientation:
 ---------------------------------------------------------------------
 Center     Atomic      Atomic             Coordinates (Angstroms)
 Number     Number       Type             X           Y           Z
 ---------------------------------------------------------------------
      1          8           0        0.000000    0.000000    1.741201
      2          8           0        0.000000    0.000000    3.093581
      3          8           0        0.000000    0.000000   -3.093581
      4          8           0        0.000000    0.000000   -1.741201
 ---------------------------------------------------------------------

 SCF Done:  E(UHF) =  -298.953679391     A.U. after   11 cycles
 E2 =    -0.1156363862D+01 EUMP2 =    -0.30011004325234D+03
 CCSD(T)
 CCSD(T)= -0.30010171296D+03

 The electronic state is 3-SGG.
 Alpha  occ. eigenvalues --  -20.21223 -20.21223 -20.17634 -20.17634  -1.05386
 Alpha  occ. eigenvalues --   -1.05363  -0.68851  -0.68708  -0.23975  -0.23975
 Alpha  occ. eigenvalues --   -0.23909  -0.23909  -0.18379  -0.17767  -0.02849
 Alpha  occ. eigenvalues --   -0.02849  -0.02726  -0.02726
 Alpha virt. eigenvalues --    0.70903   0.77107   1.07102   1.14227   1.14227
 Alpha virt. eigenvalues --    1.15333   1.15414   1.15414   1.16637   1.22247
 Alpha virt. eigenvalues --    1.22247   1.25325   1.25325   1.36646   1.37010

  Beta  occ. eigenvalues --  -20.17498 -20.17497 -20.15249 -20.15249  -0.97191
  Beta  occ. eigenvalues --   -0.97131  -0.57645  -0.57220  -0.15896  -0.15121
  Beta  occ. eigenvalues --   -0.09574  -0.09574  -0.09001  -0.09001   0.24421
  Beta  occ. eigenvalues --    0.24421
  Beta virt. eigenvalues --    0.36849   0.36849   0.73593   0.80803   1.09409
  Beta virt. eigenvalues --    1.16451   1.17414   1.19334   1.19334   1.20121
  Beta virt. eigenvalues --    1.20121   1.27471   1.27471   1.30839   1.30839

 Mulliken charges and spin densities:
               1          2
     1  O   -0.396795   0.638682
     2  O   -0.603205   0.361318
     3  O   -0.603205   0.361318
     4  O   -0.396795   0.638682
 Sum of Mulliken charges =  -2.00000   2.00000

 Dipole moment (field-independent basis, Debye):
    X=             -0.0000    Y=              0.0000    Z=             -0.0000  Tot=              0.0000
 Quadrupole moment (field-independent basis, Debye-Ang):
   XX=            -24.9803   YY=            -24.9803   ZZ=            -93.6637
   XY=              0.0000   XZ=              0.0000   YZ=              0.0000

 Normal termination of Gaussian 16 at Sat Dec 31 22:26:34 2022.
