 Gaussian 16, Revision A.03,
 Gaussian 16:  ES64L-G16RevA.03 25-Dec-2016

 -------------------------------------
 #p CCSD(T)/cc-pVTZ Guess=Read SCF=XQC
 -------------------------------------

 ---------
 O2_O2_179
 ---------
 Symbolic Z-matrix:
 Charge = -2 Multiplicity = 3

                         Standard orientation:
 ---------------------------------------------------------------------
 Center     Atomic      Atomic             Coordinates (Angstroms)
 Number     Number       Type             X           Y           Z
 ---------------------------------------------------------------------
      1          8           0        0.000000    0.000000    2.059769
      2          8           0        0.000000    0.000000    3.412149
      3          8           0        0.000000    0.000000   -3.412149
      4          8           0        0.000000    0.000000   -2.059769
 ---------------------------------------------------------------------

 SCF Done:  E(UHF) =  -298.955841302     A.U. after   11 cycles
 E2 =    -0.1197048943D+01 EUMP2 =    -0.30015289024517D+03
 CCSD(T)
 CCSD(T)= -0.30011771713D+03

 The electronic state is 3-SGG.
 Alpha  occ. eigenvalues --  -20.21915 -20.21915 -20.19307 -20.19307  -1.06493
 Alpha  occ. eigenvalues --   -1.06489  -0.70046  -0.70017  -0.25043  -0.25043
 Alpha  occ. eigenvalues --   -0.25030  -0.25030  -0.19417  -0.19249  -0.04053
 Alpha  occ. eigenvalues --   -0.04053  -0.04026  -0.04026
 Alpha virt. eigenvalues --    0.71108   0.74289   1.09634   1.13606   1.13606
 Alpha virt. eigenvalues --    1.13863   1.13863   1.14287   1.16209   1.22054
 Alpha virt. eigenvalues --    1.22054   1.22768   1.22768   1.23466   1.35797

  Beta  occ. eigenvalues --  -20.18380 -20.18379 -20.16760 -20.16760  -0.98380
  Beta  occ. eigenvalues --   -0.98358  -0.58783  -0.58612  -0.16906  -0.16685
  Beta  occ. eigenvalues --   -0.10637  -0.10637  -0.10277  -0.10277   0.24085
  Beta  occ. eigenvalues --    0.24085
  Beta virt. eigenvalues --    0.34537   0.34537   0.74015   0.77740   1.11809
  Beta virt. eigenvalues --    1.15579   1.16936   1.18532   1.18532   1.18720
  Beta virt. eigenvalues --    1.18720   1.24730   1.27382   1.27382   1.28141

 Mulliken charges and spin densities:
               1          2
     1  O   -0.420339   0.604991
     2  O   -0.579661   0.395009
     3  O   -0.579661   0.395009
     4  O   -0.420339   0.604991
 Sum of Mulliken charges =  -2.00000   2.00000

 Dipole moment (field-independent basis, Debye):
    X=             -0.0000    Y=             -0.0000    Z=              0.0000  Tot=              0.0000
 Quadrupole moment (field-independent basis, Debye-Ang):
   XX=            -24.9564   YY=            -24.9564   ZZ=           -108.6234
   XY=              0.0000   XZ=              0.0000   YZ=              0.0000

 Normal termination of Gaussian 16 at Sat Dec 31 23:22:01 2022.
