 Gaussian 16, Revision A.03,
 Gaussian 16:  ES64L-G16RevA.03 25-Dec-2016

 -------------------------------------
 #p CCSD(T)/cc-pVTZ Guess=Read SCF=XQC
 -------------------------------------

 ---------
 O2_O2_143
 ---------
 Symbolic Z-matrix:
 Charge = -2 Multiplicity = 3

                         Standard orientation:
 ---------------------------------------------------------------------
 Center     Atomic      Atomic             Coordinates (Angstroms)
 Number     Number       Type             X           Y           Z
 ---------------------------------------------------------------------
      1          8           0        0.000000    0.000000    1.804914
      2          8           0        0.000000    0.000000    3.157294
      3          8           0        0.000000    0.000000   -3.157294
      4          8           0        0.000000    0.000000   -1.804914
 ---------------------------------------------------------------------

 SCF Done:  E(UHF) =  -298.953853250     A.U. after   11 cycles
 E2 =    -0.1164974048D+01 EUMP2 =    -0.30011882729834D+03
 CCSD(T)
 CCSD(T)= -0.30010519739D+03

 The electronic state is 3-SGG.
 Alpha  occ. eigenvalues --  -20.21351 -20.21351 -20.18008 -20.18008  -1.05616
 Alpha  occ. eigenvalues --   -1.05600  -0.69102  -0.68997  -0.24193  -0.24193
 Alpha  occ. eigenvalues --   -0.24145  -0.24145  -0.18583  -0.18105  -0.03104
 Alpha  occ. eigenvalues --   -0.03104  -0.03011  -0.03011
 Alpha virt. eigenvalues --    0.70798   0.76529   1.07262   1.14156   1.14156
 Alpha virt. eigenvalues --    1.15056   1.15056   1.15185   1.16474   1.22269
 Alpha virt. eigenvalues --    1.22269   1.24651   1.24651   1.34238   1.36724

  Beta  occ. eigenvalues --  -20.17674 -20.17673 -20.15584 -20.15584  -0.97446
  Beta  occ. eigenvalues --   -0.97398  -0.57880  -0.57534  -0.16092  -0.15483
  Beta  occ. eigenvalues --   -0.09798  -0.09798  -0.09280  -0.09280   0.24367
  Beta  occ. eigenvalues --    0.24367
  Beta virt. eigenvalues --    0.36318   0.36318   0.73501   0.80180   1.09564
  Beta virt. eigenvalues --    1.16322   1.17242   1.19197   1.19197   1.19807
  Beta virt. eigenvalues --    1.19807   1.27535   1.27535   1.30122   1.30122

 Mulliken charges and spin densities:
               1          2
     1  O   -0.402378   0.630590
     2  O   -0.597622   0.369410
     3  O   -0.597622   0.369410
     4  O   -0.402378   0.630590
 Sum of Mulliken charges =  -2.00000   2.00000

 Dipole moment (field-independent basis, Debye):
    X=             -0.0000    Y=             -0.0000    Z=             -0.0000  Tot=              0.0000
 Quadrupole moment (field-independent basis, Debye-Ang):
   XX=            -24.9736   YY=            -24.9736   ZZ=            -96.4811
   XY=              0.0000   XZ=              0.0000   YZ=              0.0000

 Normal termination of Gaussian 16 at Sat Dec 31 22:38:14 2022.
