 Gaussian 16, Revision A.03,
 Gaussian 16:  ES64L-G16RevA.03 25-Dec-2016

 -------------------------------------
 #p CCSD(T)/cc-pVTZ Guess=Read SCF=XQC
 -------------------------------------

 --------
 O2_O2_18
 --------
 Symbolic Z-matrix:
 Charge = -2 Multiplicity = 3

                         Standard orientation:
 ---------------------------------------------------------------------
 Center     Atomic      Atomic             Coordinates (Angstroms)
 Number     Number       Type             X           Y           Z
 ---------------------------------------------------------------------
      1          8           0        0.000000    0.000000    0.920002
      2          8           0        0.000000    0.000000    2.272383
      3          8           0        0.000000    0.000000   -2.272383
      4          8           0        0.000000    0.000000   -0.920002
 ---------------------------------------------------------------------

 SCF Done:  E(UHF) =  -298.956298884     A.U. after   12 cycles
 E2 =    -0.1028306245D+01 EUMP2 =    -0.29998460512917D+03
 CCSD(T)
 CCSD(T)= -0.30002333505D+03

 The electronic state is 3-SGG.
 Alpha  occ. eigenvalues --  -20.19678 -20.19676 -20.09200 -20.09199  -1.03422
 Alpha  occ. eigenvalues --   -1.00633  -0.67833  -0.60349  -0.22613  -0.22613
 Alpha  occ. eigenvalues --   -0.19540  -0.19040  -0.19040  -0.05417   0.01593
 Alpha  occ. eigenvalues --    0.01593   0.04122   0.04122
 Alpha virt. eigenvalues --    0.78206   0.86779   1.15735   1.15735   1.16958
 Alpha virt. eigenvalues --    1.18334   1.21749   1.21749   1.26070   1.26070
 Alpha virt. eigenvalues --    1.38610   1.38816   1.40969   1.40969   1.48304

  Beta  occ. eigenvalues --  -20.14715 -20.14705 -20.07811 -20.07811  -0.93751
  Beta  occ. eigenvalues --   -0.91523  -0.59153  -0.47950  -0.16930  -0.06860
  Beta  occ. eigenvalues --   -0.06860  -0.03312  -0.03312  -0.01694   0.21624
  Beta  occ. eigenvalues --    0.21624
  Beta virt. eigenvalues --    0.50998   0.50998   0.82199   0.90620   1.18519
  Beta virt. eigenvalues --    1.18654   1.22921   1.22921   1.25191   1.25191
  Beta virt. eigenvalues --    1.30462   1.30462   1.39001   1.39690   1.47177

 Mulliken charges and spin densities:
               1          2
     1  O   -0.230919   0.832696
     2  O   -0.769081   0.167304
     3  O   -0.769081   0.167304
     4  O   -0.230919   0.832696
 Sum of Mulliken charges =  -2.00000   2.00000

 Dipole moment (field-independent basis, Debye):
    X=             -0.0000    Y=             -0.0000    Z=             -0.0000  Tot=              0.0000
 Quadrupole moment (field-independent basis, Debye-Ang):
   XX=            -25.1023   YY=            -25.1023   ZZ=            -66.2342
   XY=              0.0000   XZ=              0.0000   YZ=              0.0000

 Normal termination of Gaussian 16 at Sat Dec 31 20:06:35 2022.
