 Gaussian 16, Revision A.03,
 Gaussian 16:  ES64L-G16RevA.03 25-Dec-2016

 -------------------------------------
 #p CCSD(T)/cc-pVTZ Guess=Read SCF=XQC
 -------------------------------------

 --------
 O2_O2_91
 --------
 Symbolic Z-matrix:
 Charge = -2 Multiplicity = 3

                         Standard orientation:
 ---------------------------------------------------------------------
 Center     Atomic      Atomic             Coordinates (Angstroms)
 Number     Number       Type             X           Y           Z
 ---------------------------------------------------------------------
      1          8           0        0.000000    0.000000    1.436791
      2          8           0        0.000000    0.000000    2.789171
      3          8           0        0.000000    0.000000   -2.789171
      4          8           0        0.000000    0.000000   -1.436791
 ---------------------------------------------------------------------

 SCF Done:  E(UHF) =  -298.956387498     A.U. after   12 cycles
 E2 =    -0.1110712110D+01 EUMP2 =    -0.30006709960790D+03
 CCSD(T)
 CCSD(T)= -0.30008291540D+03

 The electronic state is 3-SGG.
 Alpha  occ. eigenvalues --  -20.20748 -20.20747 -20.15466 -20.15466  -1.04271
 Alpha  occ. eigenvalues --   -1.04142  -0.67636  -0.67012  -0.22966  -0.22966
 Alpha  occ. eigenvalues --   -0.22681  -0.22681  -0.17589  -0.15641  -0.01504
 Alpha  occ. eigenvalues --   -0.01504  -0.01097  -0.01097
 Alpha virt. eigenvalues --    0.73193   0.79858   1.12387   1.13876   1.13876
 Alpha virt. eigenvalues --    1.15650   1.17427   1.17427   1.17890   1.22168
 Alpha virt. eigenvalues --    1.22168   1.30132   1.30132   1.37817   1.38322

  Beta  occ. eigenvalues --  -20.16685 -20.16682 -20.13336 -20.13336  -0.95855
  Beta  occ. eigenvalues --   -0.95662  -0.56588  -0.55315  -0.15180  -0.12812
  Beta  occ. eigenvalues --   -0.08447  -0.08447  -0.07453  -0.07453   0.24451
  Beta  occ. eigenvalues --    0.24451
  Beta virt. eigenvalues --    0.40122   0.40122   0.76211   0.83702   1.14260
  Beta virt. eigenvalues --    1.16751   1.18866   1.19704   1.19704   1.21791
  Beta virt. eigenvalues --    1.21791   1.26904   1.26904   1.35962   1.35962

 Mulliken charges and spin densities:
               1          2
     1  O   -0.360892   0.690718
     2  O   -0.639108   0.309282
     3  O   -0.639108   0.309282
     4  O   -0.360892   0.690718
 Sum of Mulliken charges =  -2.00000   2.00000

 Dipole moment (field-independent basis, Debye):
    X=             -0.0000    Y=             -0.0000    Z=              0.0000  Tot=              0.0000
 Quadrupole moment (field-independent basis, Debye-Ang):
   XX=            -25.0310   YY=            -25.0310   ZZ=            -81.4316
   XY=              0.0000   XZ=              0.0000   YZ=              0.0000

 Normal termination of Gaussian 16 at Sat Dec 31 21:33:21 2022.
