 Gaussian 16, Revision A.03,
 Gaussian 16:  ES64L-G16RevA.03 25-Dec-2016

 -------------------------------------
 #p CCSD(T)/cc-pVTZ Guess=Read SCF=XQC
 -------------------------------------

 ---------
 O2_O2_283
 ---------
 Symbolic Z-matrix:
 Charge = -2 Multiplicity = 3

                         Standard orientation:
 ---------------------------------------------------------------------
 Center     Atomic      Atomic             Coordinates (Angstroms)
 Number     Number       Type             X           Y           Z
 ---------------------------------------------------------------------
      1          8           0        0.000000    0.000000    2.796015
      2          8           0        0.000000    0.000000    4.148395
      3          8           0        0.000000    0.000000   -4.148395
      4          8           0        0.000000    0.000000   -2.796015
 ---------------------------------------------------------------------

 SCF Done:  E(UHF) =  -298.964219847     A.U. after   10 cycles
 E2 =    -0.1279467346D+01 EUMP2 =    -0.30024368719369D+03
 CCSD(T)
 CCSD(T)= -0.30014418705D+03

 The electronic state is 3-SGG.
 Alpha  occ. eigenvalues --  -20.23472 -20.23472 -20.21902 -20.21902  -1.08500
 Alpha  occ. eigenvalues --   -1.08500  -0.72154  -0.72154  -0.27028  -0.27028
 Alpha  occ. eigenvalues --   -0.27028  -0.27028  -0.21464  -0.21461  -0.06158
 Alpha  occ. eigenvalues --   -0.06158  -0.06157  -0.06157
 Alpha virt. eigenvalues --    0.70520   0.70602   1.10822   1.10943   1.11731
 Alpha virt. eigenvalues --    1.11731   1.11733   1.11733   1.15740   1.15840
 Alpha virt. eigenvalues --    1.20315   1.20315   1.20320   1.20320   1.33830

  Beta  occ. eigenvalues --  -20.20130 -20.20129 -20.19162 -20.19162  -1.00424
  Beta  occ. eigenvalues --   -1.00419  -0.60830  -0.60778  -0.18946  -0.18936
  Beta  occ. eigenvalues --   -0.12543  -0.12543  -0.12378  -0.12378   0.23217
  Beta  occ. eigenvalues --    0.23217
  Beta virt. eigenvalues --    0.31137   0.31137   0.73693   0.73791   1.12686
  Beta virt. eigenvalues --    1.12795   1.16614   1.16651   1.16651   1.16654
  Beta virt. eigenvalues --    1.16654   1.16737   1.25635   1.25635   1.25641

 Mulliken charges and spin densities:
               1          2
     1  O   -0.450659   0.564503
     2  O   -0.549341   0.435497
     3  O   -0.549341   0.435497
     4  O   -0.450659   0.564503
 Sum of Mulliken charges =  -2.00000   2.00000

 Dipole moment (field-independent basis, Debye):
    X=             -0.0000    Y=              0.0000    Z=              0.0000  Tot=              0.0000
 Quadrupole moment (field-independent basis, Debye-Ang):
   XX=            -24.9424   YY=            -24.9424   ZZ=           -151.2150
   XY=              0.0000   XZ=              0.0000   YZ=              0.0000

 Normal termination of Gaussian 16 at Sun Jan  1 01:30:21 2023.
