 Gaussian 16, Revision A.03,
 Gaussian 16:  ES64L-G16RevA.03 25-Dec-2016

 -------------------------------------
 #p CCSD(T)/cc-pVTZ Guess=Read SCF=XQC
 -------------------------------------

 -------
 O2_O2_1
 -------
 Symbolic Z-matrix:
 Charge = -2 Multiplicity = 3

                         Standard orientation:
 ---------------------------------------------------------------------
 Center     Atomic      Atomic             Coordinates (Angstroms)
 Number     Number       Type             X           Y           Z
 ---------------------------------------------------------------------
      1          8           0        0.000000    0.000000    0.799655
      2          8           0        0.000000    0.000000    2.152035
      3          8           0        0.000000    0.000000   -2.152035
      4          8           0        0.000000    0.000000   -0.799655
 ---------------------------------------------------------------------

 SCF Done:  E(UHF) =  -298.911817591     A.U. after   11 cycles
 E2 =    -0.1022388655D+01 EUMP2 =    -0.29993420624597D+03
 CCSD(T)
 CCSD(T)= -0.29997015628D+03

 The electronic state is 3-SGG.
 Alpha  occ. eigenvalues --  -20.19248 -20.19247 -20.06670 -20.06669  -1.05102
 Alpha  occ. eigenvalues --   -0.98915  -0.70186  -0.56976  -0.24114  -0.24114
 Alpha  occ. eigenvalues --   -0.21398  -0.17278  -0.17278   0.01191   0.02551
 Alpha  occ. eigenvalues --    0.02551   0.06379   0.06379
 Alpha virt. eigenvalues --    0.78736   0.90334   1.16934   1.16934   1.17888
 Alpha virt. eigenvalues --    1.17923   1.23137   1.23137   1.28321   1.28321
 Alpha virt. eigenvalues --    1.37801   1.38648   1.42813   1.42813   1.54027

  Beta  occ. eigenvalues --  -20.14140 -20.14121 -20.05460 -20.05460  -0.94593
  Beta  occ. eigenvalues --   -0.89901  -0.63372  -0.44535  -0.18139  -0.07326
  Beta  occ. eigenvalues --   -0.07326  -0.01662  -0.01662   0.05431   0.19630
  Beta  occ. eigenvalues --    0.19630
  Beta virt. eigenvalues --    0.55083   0.55083   0.82750   0.93942   1.17884
  Beta virt. eigenvalues --    1.20391   1.23818   1.23818   1.26378   1.26378
  Beta virt. eigenvalues --    1.32824   1.32824   1.38664   1.38854   1.49052

 Mulliken charges and spin densities:
               1          2
     1  O   -0.170708   0.859058
     2  O   -0.829292   0.140942
     3  O   -0.829292   0.140942
     4  O   -0.170708   0.859058
 Sum of Mulliken charges =  -2.00000   2.00000

 Dipole moment (field-independent basis, Debye):
    X=             -0.0000    Y=              0.0000    Z=              0.0000  Tot=              0.0000
 Quadrupole moment (field-independent basis, Debye-Ang):
   XX=            -25.0096   YY=            -25.0096   ZZ=            -64.5621
   XY=              0.0000   XZ=              0.0000   YZ=              0.0000

 215\PMP3-0=-299.898735\MP4SDQ=-299.9176742\CCSD=-299.9127562\CCSD(T)=-
 Normal termination of Gaussian 16 at Sat Dec 31 19:47:10 2022.
