 Gaussian 16, Revision A.03,
 Gaussian 16:  ES64L-G16RevA.03 25-Dec-2016

 -------------------------------------
 #p CCSD(T)/cc-pVTZ Guess=Read SCF=XQC
 -------------------------------------

 --------
 O2_O2_83
 --------
 Symbolic Z-matrix:
 Charge = -2 Multiplicity = 3

                         Standard orientation:
 ---------------------------------------------------------------------
 Center     Atomic      Atomic             Coordinates (Angstroms)
 Number     Number       Type             X           Y           Z
 ---------------------------------------------------------------------
      1          8           0        0.000000    0.000000    1.380157
      2          8           0        0.000000    0.000000    2.732537
      3          8           0        0.000000    0.000000   -2.732537
      4          8           0        0.000000    0.000000   -1.380157
 ---------------------------------------------------------------------

 SCF Done:  E(UHF) =  -298.957766519     A.U. after   12 cycles
 E2 =    -0.1101352560D+01 EUMP2 =    -0.30005911907825D+03
 CCSD(T)
 CCSD(T)= -0.30007900191D+03

 The electronic state is 3-SGG.
 Alpha  occ. eigenvalues --  -20.20683 -20.20683 -20.14975 -20.14975  -1.04069
 Alpha  occ. eigenvalues --   -1.03890  -0.67424  -0.66606  -0.22799  -0.22799
 Alpha  occ. eigenvalues --   -0.22425  -0.22425  -0.17512  -0.15101  -0.01226
 Alpha  occ. eigenvalues --   -0.01226  -0.00725  -0.00725
 Alpha virt. eigenvalues --    0.73820   0.80393   1.13719   1.13719   1.14591
 Alpha virt. eigenvalues --    1.15679   1.17842   1.17842   1.18347   1.22270
 Alpha virt. eigenvalues --    1.22270   1.31305   1.31305   1.37992   1.38583

  Beta  occ. eigenvalues --  -20.16535 -20.16532 -20.12909 -20.12908  -0.95586
  Beta  occ. eigenvalues --   -0.95340  -0.56442  -0.54850  -0.15125  -0.12221
  Beta  occ. eigenvalues --   -0.08232  -0.08232  -0.07117  -0.07117   0.24386
  Beta  occ. eigenvalues --    0.24386
  Beta virt. eigenvalues --    0.40912   0.40912   0.76956   0.84256   1.16069
  Beta virt. eigenvalues --    1.16787   1.19642   1.19754   1.19754   1.22121
  Beta virt. eigenvalues --    1.22121   1.26870   1.26870   1.37206   1.37206

 Mulliken charges and spin densities:
               1          2
     1  O   -0.351979   0.703336
     2  O   -0.648021   0.296664
     3  O   -0.648021   0.296664
     4  O   -0.351979   0.703336
 Sum of Mulliken charges =  -2.00000   2.00000

 Dipole moment (field-independent basis, Debye):
    X=             -0.0000    Y=             -0.0000    Z=             -0.0000  Tot=              0.0000
 Quadrupole moment (field-independent basis, Debye-Ang):
   XX=            -25.0441   YY=            -25.0441   ZZ=            -79.3842
   XY=              0.0000   XZ=              0.0000   YZ=              0.0000

 Normal termination of Gaussian 16 at Sat Dec 31 21:23:34 2022.
