 Gaussian 16, Revision A.03,
 Gaussian 16:  ES64L-G16RevA.03 25-Dec-2016

 -------------------------------------
 #p CCSD(T)/cc-pVTZ Guess=Read SCF=XQC
 -------------------------------------

 --------
 O2_O2_92
 --------
 Symbolic Z-matrix:
 Charge = -2 Multiplicity = 3

                         Standard orientation:
 ---------------------------------------------------------------------
 Center     Atomic      Atomic             Coordinates (Angstroms)
 Number     Number       Type             X           Y           Z
 ---------------------------------------------------------------------
      1          8           0        0.000000    0.000000    1.443871
      2          8           0        0.000000    0.000000    2.796251
      3          8           0        0.000000    0.000000   -2.796251
      4          8           0        0.000000    0.000000   -1.443871
 ---------------------------------------------------------------------

 SCF Done:  E(UHF) =  -298.956236709     A.U. after   12 cycles
 E2 =    -0.1111864262D+01 EUMP2 =    -0.30006810097131D+03
 CCSD(T)
 CCSD(T)= -0.30008339439D+03

 The electronic state is 3-SGG.
 Alpha  occ. eigenvalues --  -20.20756 -20.20756 -20.15525 -20.15525  -1.04297
 Alpha  occ. eigenvalues --   -1.04172  -0.67663  -0.67060  -0.22988  -0.22988
 Alpha  occ. eigenvalues --   -0.22712  -0.22712  -0.17601  -0.15704  -0.01538
 Alpha  occ. eigenvalues --   -0.01538  -0.01141  -0.01141
 Alpha virt. eigenvalues --    0.73116   0.79792   1.12132   1.13896   1.13896
 Alpha virt. eigenvalues --    1.15647   1.17376   1.17376   1.17847   1.22160
 Alpha virt. eigenvalues --    1.22160   1.29990   1.29990   1.37795   1.38289

  Beta  occ. eigenvalues --  -20.16703 -20.16701 -20.13388 -20.13388  -0.95888
  Beta  occ. eigenvalues --   -0.95700  -0.56608  -0.55370  -0.15190  -0.12881
  Beta  occ. eigenvalues --   -0.08474  -0.08474  -0.07494  -0.07494   0.24457
  Beta  occ. eigenvalues --    0.24457
  Beta virt. eigenvalues --    0.40028   0.40028   0.76120   0.83634   1.14035
  Beta virt. eigenvalues --    1.16747   1.18802   1.19699   1.19699   1.21750
  Beta virt. eigenvalues --    1.21750   1.26912   1.26912   1.35811   1.35811

 Mulliken charges and spin densities:
               1          2
     1  O   -0.361948   0.689211
     2  O   -0.638052   0.310789
     3  O   -0.638052   0.310789
     4  O   -0.361948   0.689211
 Sum of Mulliken charges =  -2.00000   2.00000

 Dipole moment (field-independent basis, Debye):
    X=             -0.0000    Y=              0.0000    Z=              0.0000  Tot=              0.0000
 Quadrupole moment (field-independent basis, Debye-Ang):
   XX=            -25.0294   YY=            -25.0294   ZZ=            -81.6927
   XY=              0.0000   XZ=              0.0000   YZ=              0.0000

 Normal termination of Gaussian 16 at Sat Dec 31 21:34:35 2022.
