 Gaussian 16, Revision A.03,
 Gaussian 16:  ES64L-G16RevA.03 25-Dec-2016

 -------------------------------------
 #p CCSD(T)/cc-pVTZ Guess=Read SCF=XQC
 -------------------------------------

 --------
 O2_O2_95
 --------
 Symbolic Z-matrix:
 Charge = -2 Multiplicity = 3

                         Standard orientation:
 ---------------------------------------------------------------------
 Center     Atomic      Atomic             Coordinates (Angstroms)
 Number     Number       Type             X           Y           Z
 ---------------------------------------------------------------------
      1          8           0        0.000000    0.000000    1.465108
      2          8           0        0.000000    0.000000    2.817488
      3          8           0        0.000000    0.000000   -2.817488
      4          8           0        0.000000    0.000000   -1.465108
 ---------------------------------------------------------------------

 SCF Done:  E(UHF) =  -298.955813123     A.U. after   11 cycles
 E2 =    -0.1115295479D+01 EUMP2 =    -0.30007110860188D+03
 CCSD(T)
 CCSD(T)= -0.30008481850D+03

 The electronic state is 3-SGG.
 Alpha  occ. eigenvalues --  -20.20782 -20.20782 -20.15699 -20.15699  -1.04373
 Alpha  occ. eigenvalues --   -1.04263  -0.67745  -0.67201  -0.23054  -0.23054
 Alpha  occ. eigenvalues --   -0.22804  -0.22804  -0.17640  -0.15889  -0.01639
 Alpha  occ. eigenvalues --   -0.01639  -0.01273  -0.01273
 Alpha virt. eigenvalues --    0.72887   0.79596   1.11402   1.13953   1.13953
 Alpha virt. eigenvalues --    1.15638   1.17224   1.17224   1.17726   1.22140
 Alpha virt. eigenvalues --    1.22140   1.29572   1.29572   1.37727   1.38193

  Beta  occ. eigenvalues --  -20.16759 -20.16757 -20.13540 -20.13540  -0.95988
  Beta  occ. eigenvalues --   -0.95815  -0.56671  -0.55531  -0.15221  -0.13083
  Beta  occ. eigenvalues --   -0.08555  -0.08555  -0.07615  -0.07615   0.24473
  Beta  occ. eigenvalues --    0.24473
  Beta virt. eigenvalues --    0.39753   0.39753   0.75851   0.83431   1.13382
  Beta virt. eigenvalues --    1.16737   1.18632   1.19684   1.19684   1.21628
  Beta virt. eigenvalues --    1.21628   1.26940   1.26940   1.35367   1.35367

 Mulliken charges and spin densities:
               1          2
     1  O   -0.365041   0.684784
     2  O   -0.634959   0.315216
     3  O   -0.634959   0.315216
     4  O   -0.365041   0.684784
 Sum of Mulliken charges =  -2.00000   2.00000

 Dipole moment (field-independent basis, Debye):
    X=             -0.0000    Y=             -0.0000    Z=              0.0000  Tot=              0.0000
 Quadrupole moment (field-independent basis, Debye-Ang):
   XX=            -25.0248   YY=            -25.0248   ZZ=            -82.4828
   XY=              0.0000   XZ=              0.0000   YZ=              0.0000

 Normal termination of Gaussian 16 at Sat Dec 31 21:38:17 2022.
