 Gaussian 16, Revision A.03,
 Gaussian 16:  ES64L-G16RevA.03 25-Dec-2016

 -------------------------------------
 #p CCSD(T)/cc-pVTZ Guess=Read SCF=XQC
 -------------------------------------

 ---------
 O2_O2_235
 ---------
 Symbolic Z-matrix:
 Charge = -2 Multiplicity = 3

                         Standard orientation:
 ---------------------------------------------------------------------
 Center     Atomic      Atomic             Coordinates (Angstroms)
 Number     Number       Type             X           Y           Z
 ---------------------------------------------------------------------
      1          8           0        0.000000    0.000000    2.456209
      2          8           0        0.000000    0.000000    3.808589
      3          8           0        0.000000    0.000000   -3.808589
      4          8           0        0.000000    0.000000   -2.456209
 ---------------------------------------------------------------------

 SCF Done:  E(UHF) =  -298.960450639     A.U. after   11 cycles
 E2 =    -0.1242436948D+01 EUMP2 =    -0.30020288758683D+03
 CCSD(T)
 CCSD(T)= -0.30013346296D+03

 The electronic state is 3-SGG.
 Alpha  occ. eigenvalues --  -20.22806 -20.22806 -20.20870 -20.20870  -1.07674
 Alpha  occ. eigenvalues --   -1.07674  -0.71293  -0.71290  -0.26207  -0.26207
 Alpha  occ. eigenvalues --   -0.26206  -0.26206  -0.20609  -0.20586  -0.05298
 Alpha  occ. eigenvalues --   -0.05298  -0.05295  -0.05295
 Alpha virt. eigenvalues --    0.71163   0.71771   1.11293   1.12200   1.12540
 Alpha virt. eigenvalues --    1.12540   1.12563   1.12563   1.16326   1.17289
 Alpha virt. eigenvalues --    1.21132   1.21132   1.21198   1.21198   1.34641

  Beta  occ. eigenvalues --  -20.19396 -20.19395 -20.18200 -20.18199  -0.99590
  Beta  occ. eigenvalues --   -0.99580  -0.59990  -0.59910  -0.18091  -0.18053
  Beta  occ. eigenvalues --   -0.11755  -0.11755  -0.11527  -0.11527   0.23594
  Beta  occ. eigenvalues --    0.23594
  Beta virt. eigenvalues --    0.32480   0.32480   0.74296   0.75010   1.13204
  Beta virt. eigenvalues --    1.13919   1.17163   1.17451   1.17451   1.17471
  Beta virt. eigenvalues --    1.17471   1.18280   1.26459   1.26459   1.26529

 Mulliken charges and spin densities:
               1          2
     1  O   -0.439348   0.579241
     2  O   -0.560652   0.420759
     3  O   -0.560652   0.420759
     4  O   -0.439348   0.579241
 Sum of Mulliken charges =  -2.00000   2.00000

 Dipole moment (field-independent basis, Debye):
    X=             -0.0000    Y=              0.0000    Z=             -0.0000  Tot=              0.0000
 Quadrupole moment (field-independent basis, Debye-Ang):
   XX=            -24.9460   YY=            -24.9460   ZZ=           -130.1914
   XY=              0.0000   XZ=              0.0000   YZ=              0.0000

 Normal termination of Gaussian 16 at Sun Jan  1 00:31:29 2023.
