 Gaussian 16, Revision A.03,
 Gaussian 16:  ES64L-G16RevA.03 25-Dec-2016

 -------------------------------------
 #p CCSD(T)/cc-pVTZ Guess=Read SCF=XQC
 -------------------------------------

 --------
 O2_O2_97
 --------
 Symbolic Z-matrix:
 Charge = -2 Multiplicity = 3

                         Standard orientation:
 ---------------------------------------------------------------------
 Center     Atomic      Atomic             Coordinates (Angstroms)
 Number     Number       Type             X           Y           Z
 ---------------------------------------------------------------------
      1          8           0        0.000000    0.000000    1.479267
      2          8           0        0.000000    0.000000    2.831647
      3          8           0        0.000000    0.000000   -2.831647
      4          8           0        0.000000    0.000000   -1.479267
 ---------------------------------------------------------------------

 SCF Done:  E(UHF) =  -298.955554470     A.U. after   11 cycles
 E2 =    -0.1117561751D+01 EUMP2 =    -0.30007311622078D+03
 CCSD(T)
 CCSD(T)= -0.30008575752D+03

 The electronic state is 3-SGG.
 Alpha  occ. eigenvalues --  -20.20800 -20.20800 -20.15813 -20.15813  -1.04425
 Alpha  occ. eigenvalues --   -1.04323  -0.67801  -0.67292  -0.23098  -0.23098
 Alpha  occ. eigenvalues --   -0.22865  -0.22865  -0.17668  -0.16008  -0.01706
 Alpha  occ. eigenvalues --   -0.01706  -0.01358  -0.01358
 Alpha virt. eigenvalues --    0.72738   0.79467   1.10947   1.13990   1.13990
 Alpha virt. eigenvalues --    1.15632   1.17123   1.17123   1.17651   1.22130
 Alpha virt. eigenvalues --    1.22130   1.29300   1.29300   1.37681   1.38129

  Beta  occ. eigenvalues --  -20.16796 -20.16794 -20.13640 -20.13640  -0.96053
  Beta  occ. eigenvalues --   -0.95891  -0.56715  -0.55635  -0.15244  -0.13213
  Beta  occ. eigenvalues --   -0.08608  -0.08608  -0.07694  -0.07694   0.24481
  Beta  occ. eigenvalues --    0.24481
  Beta virt. eigenvalues --    0.39574   0.39574   0.75676   0.83296   1.12970
  Beta virt. eigenvalues --    1.16730   1.18534   1.19674   1.19674   1.21546
  Beta virt. eigenvalues --    1.21546   1.26962   1.26962   1.35078   1.35078

 Mulliken charges and spin densities:
               1          2
     1  O   -0.367043   0.681909
     2  O   -0.632957   0.318091
     3  O   -0.632957   0.318091
     4  O   -0.367043   0.681909
 Sum of Mulliken charges =  -2.00000   2.00000

 Dipole moment (field-independent basis, Debye):
    X=             -0.0000    Y=             -0.0000    Z=             -0.0000  Tot=              0.0000
 Quadrupole moment (field-independent basis, Debye-Ang):
   XX=            -25.0218   YY=            -25.0218   ZZ=            -83.0152
   XY=              0.0000   XZ=              0.0000   YZ=              0.0000

 Normal termination of Gaussian 16 at Sat Dec 31 21:40:47 2022.
