 Gaussian 16, Revision A.03,
 Gaussian 16:  ES64L-G16RevA.03 25-Dec-2016

 -------------------------------------
 #p CCSD(T)/cc-pVTZ Guess=Read SCF=XQC
 -------------------------------------

 ---------
 O2_O2_267
 ---------
 Symbolic Z-matrix:
 Charge = -2 Multiplicity = 3

                         Standard orientation:
 ---------------------------------------------------------------------
 Center     Atomic      Atomic             Coordinates (Angstroms)
 Number     Number       Type             X           Y           Z
 ---------------------------------------------------------------------
      1          8           0        0.000000    0.000000    2.682746
      2          8           0        0.000000    0.000000    4.035126
      3          8           0        0.000000    0.000000   -4.035126
      4          8           0        0.000000    0.000000   -2.682746
 ---------------------------------------------------------------------

 SCF Done:  E(UHF) =  -298.963020333     A.U. after   11 cycles
 E2 =    -0.1267224306D+01 EUMP2 =    -0.30023024463864D+03
 CCSD(T)
 CCSD(T)= -0.30014085088D+03

 The electronic state is 3-SGG.
 Alpha  occ. eigenvalues --  -20.23261 -20.23261 -20.21583 -20.21583  -1.08242
 Alpha  occ. eigenvalues --   -1.08242  -0.71886  -0.71885  -0.26772  -0.26772
 Alpha  occ. eigenvalues --   -0.26771  -0.26771  -0.21197  -0.21191  -0.05890
 Alpha  occ. eigenvalues --   -0.05890  -0.05890  -0.05890
 Alpha virt. eigenvalues --    0.70759   0.70927   1.11035   1.11287   1.11985
 Alpha virt. eigenvalues --    1.11985   1.11990   1.11990   1.15980   1.16203
 Alpha virt. eigenvalues --    1.20575   1.20575   1.20588   1.20588   1.34083

  Beta  occ. eigenvalues --  -20.19899 -20.19899 -20.18864 -20.18864  -1.00164
  Beta  occ. eigenvalues --   -1.00158  -0.60568  -0.60508  -0.18678  -0.18664
  Beta  occ. eigenvalues --   -0.12297  -0.12297  -0.12113  -0.12113   0.23337
  Beta  occ. eigenvalues --    0.23337
  Beta virt. eigenvalues --    0.31552   0.31552   0.73926   0.74125   1.12902
  Beta virt. eigenvalues --    1.13114   1.16850   1.16903   1.16903   1.16908
  Beta virt. eigenvalues --    1.16908   1.17117   1.25897   1.25897   1.25912

 Mulliken charges and spin densities:
               1          2
     1  O   -0.447267   0.568905
     2  O   -0.552733   0.431095
     3  O   -0.552733   0.431095
     4  O   -0.447267   0.568905
 Sum of Mulliken charges =  -2.00000   2.00000

 Dipole moment (field-independent basis, Debye):
    X=             -0.0000    Y=             -0.0000    Z=             -0.0000  Tot=              0.0000
 Quadrupole moment (field-independent basis, Debye-Ang):
   XX=            -24.9434   YY=            -24.9434   ZZ=           -143.9490
   XY=              0.0000   XZ=              0.0000   YZ=              0.0000

 Normal termination of Gaussian 16 at Sun Jan  1 01:11:01 2023.
