 Gaussian 16, Revision A.03,
 Gaussian 16:  ES64L-G16RevA.03 25-Dec-2016

 -------------------------------------
 #p CCSD(T)/cc-pVTZ Guess=Read SCF=XQC
 -------------------------------------

 ---------
 O2_O2_266
 ---------
 Symbolic Z-matrix:
 Charge = -2 Multiplicity = 3

                         Standard orientation:
 ---------------------------------------------------------------------
 Center     Atomic      Atomic             Coordinates (Angstroms)
 Number     Number       Type             X           Y           Z
 ---------------------------------------------------------------------
      1          8           0        0.000000    0.000000    2.675667
      2          8           0        0.000000    0.000000    4.028047
      3          8           0        0.000000    0.000000   -4.028047
      4          8           0        0.000000    0.000000   -2.675667
 ---------------------------------------------------------------------

 SCF Done:  E(UHF) =  -298.962943363     A.U. after   11 cycles
 E2 =    -0.1266456438D+01 EUMP2 =    -0.30022939980074D+03
 CCSD(T)
 CCSD(T)= -0.30014063500D+03

 The electronic state is 3-SGG.
 Alpha  occ. eigenvalues --  -20.23248 -20.23248 -20.21563 -20.21563  -1.08226
 Alpha  occ. eigenvalues --   -1.08226  -0.71869  -0.71868  -0.26755  -0.26755
 Alpha  occ. eigenvalues --   -0.26755  -0.26755  -0.21180  -0.21173  -0.05873
 Alpha  occ. eigenvalues --   -0.05873  -0.05872  -0.05872
 Alpha virt. eigenvalues --    0.70773   0.70949   1.11047   1.11311   1.12002
 Alpha virt. eigenvalues --    1.12002   1.12006   1.12006   1.15994   1.16228
 Alpha virt. eigenvalues --    1.20591   1.20591   1.20605   1.20605   1.34099

  Beta  occ. eigenvalues --  -20.19885 -20.19884 -20.18844 -20.18844  -1.00147
  Beta  occ. eigenvalues --   -1.00141  -0.60551  -0.60491  -0.18661  -0.18646
  Beta  occ. eigenvalues --   -0.12281  -0.12281  -0.12096  -0.12096   0.23344
  Beta  occ. eigenvalues --    0.23344
  Beta virt. eigenvalues --    0.31579   0.31579   0.73940   0.74148   1.12914
  Beta virt. eigenvalues --    1.13135   1.16864   1.16919   1.16919   1.16924
  Beta virt. eigenvalues --    1.16924   1.17143   1.25914   1.25914   1.25929

 Mulliken charges and spin densities:
               1          2
     1  O   -0.447044   0.569195
     2  O   -0.552956   0.430805
     3  O   -0.552956   0.430805
     4  O   -0.447044   0.569195
 Sum of Mulliken charges =  -2.00000   2.00000

 Dipole moment (field-independent basis, Debye):
    X=             -0.0000    Y=              0.0000    Z=             -0.0000  Tot=              0.0000
 Quadrupole moment (field-independent basis, Debye-Ang):
   XX=            -24.9434   YY=            -24.9434   ZZ=           -143.5034
   XY=              0.0000   XZ=              0.0000   YZ=              0.0000

 Normal termination of Gaussian 16 at Sun Jan  1 01:09:47 2023.
