 Gaussian 16, Revision A.03,
 Gaussian 16:  ES64L-G16RevA.03 25-Dec-2016

 -------------------------------------
 #p CCSD(T)/cc-pVTZ Guess=Read SCF=XQC
 -------------------------------------

 ---------
 O2_O2_108
 ---------
 Symbolic Z-matrix:
 Charge = -2 Multiplicity = 3

                         Standard orientation:
 ---------------------------------------------------------------------
 Center     Atomic      Atomic             Coordinates (Angstroms)
 Number     Number       Type             X           Y           Z
 ---------------------------------------------------------------------
      1          8           0        0.000000    0.000000    1.557139
      2          8           0        0.000000    0.000000    2.909519
      3          8           0        0.000000    0.000000   -2.909519
      4          8           0        0.000000    0.000000   -1.557139
 ---------------------------------------------------------------------

 SCF Done:  E(UHF) =  -298.954456488     A.U. after   11 cycles
 E2 =    -0.1129713761D+01 EUMP2 =    -0.30008417024895D+03
 CCSD(T)
 CCSD(T)= -0.30009077912D+03

 The electronic state is 3-SGG.
 Alpha  occ. eigenvalues --  -20.20907 -20.20907 -20.16409 -20.16409  -1.04710
 Alpha  occ. eigenvalues --   -1.04645  -0.68111  -0.67762  -0.23350  -0.23350
 Alpha  occ. eigenvalues --   -0.23190  -0.23190  -0.17846  -0.16609  -0.02062
 Alpha  occ. eigenvalues --   -0.02062  -0.01804  -0.01804
 Alpha virt. eigenvalues --    0.71983   0.78763   1.08920   1.14156   1.14156
 Alpha virt. eigenvalues --    1.15588   1.16581   1.16581   1.17289   1.22125
 Alpha virt. eigenvalues --    1.22125   1.27905   1.27905   1.37422   1.37783

  Beta  occ. eigenvalues --  -20.17001 -20.16999 -20.14163 -20.14162  -0.96407
  Beta  occ. eigenvalues --   -0.96288  -0.56974  -0.56168  -0.15399  -0.13869
  Beta  occ. eigenvalues --   -0.08902  -0.08902  -0.08113  -0.08113   0.24501
  Beta  occ. eigenvalues --    0.24501
  Beta virt. eigenvalues --    0.38656   0.38656   0.74796   0.82561   1.11099
  Beta virt. eigenvalues --    1.16684   1.18105   1.19611   1.19611   1.21105
  Beta virt. eigenvalues --    1.21105   1.27115   1.27115   1.33591   1.33591

 Mulliken charges and spin densities:
               1          2
     1  O   -0.377243   0.667161
     2  O   -0.622757   0.332839
     3  O   -0.622757   0.332839
     4  O   -0.377243   0.667161
 Sum of Mulliken charges =  -2.00000   2.00000

 Dipole moment (field-independent basis, Debye):
    X=             -0.0000    Y=             -0.0000    Z=             -0.0000  Tot=              0.0000
 Quadrupole moment (field-independent basis, Debye-Ang):
   XX=            -25.0069   YY=            -25.0069   ZZ=            -86.0232
   XY=              0.0000   XZ=              0.0000   YZ=              0.0000

 Normal termination of Gaussian 16 at Sat Dec 31 21:54:04 2022.
