 Gaussian 16, Revision A.03,
 Gaussian 16:  ES64L-G16RevA.03 25-Dec-2016

 -------------------------------------
 #p CCSD(T)/cc-pVTZ Guess=Read SCF=XQC
 -------------------------------------

 --------
 O2_O2_93
 --------
 Symbolic Z-matrix:
 Charge = -2 Multiplicity = 3

                         Standard orientation:
 ---------------------------------------------------------------------
 Center     Atomic      Atomic             Coordinates (Angstroms)
 Number     Number       Type             X           Y           Z
 ---------------------------------------------------------------------
      1          8           0        0.000000    0.000000    1.450950
      2          8           0        0.000000    0.000000    2.803330
      3          8           0        0.000000    0.000000   -2.803330
      4          8           0        0.000000    0.000000   -1.450950
 ---------------------------------------------------------------------

 SCF Done:  E(UHF) =  -298.956090736     A.U. after   12 cycles
 E2 =    -0.1113012186D+01 EUMP2 =    -0.30006910292179D+03
 CCSD(T)
 CCSD(T)= -0.30008387120D+03

 The electronic state is 3-SGG.
 Alpha  occ. eigenvalues --  -20.20765 -20.20764 -20.15584 -20.15584  -1.04322
 Alpha  occ. eigenvalues --   -1.04203  -0.67690  -0.67108  -0.23010  -0.23010
 Alpha  occ. eigenvalues --   -0.22743  -0.22743  -0.17614  -0.15767  -0.01572
 Alpha  occ. eigenvalues --   -0.01572  -0.01186  -0.01186
 Alpha virt. eigenvalues --    0.73039   0.79727   1.11882   1.13915   1.13915
 Alpha virt. eigenvalues --    1.15644   1.17325   1.17325   1.17805   1.22152
 Alpha virt. eigenvalues --    1.22152   1.29849   1.29849   1.37773   1.38257

  Beta  occ. eigenvalues --  -20.16722 -20.16720 -20.13439 -20.13439  -0.95922
  Beta  occ. eigenvalues --   -0.95739  -0.56629  -0.55424  -0.15199  -0.12950
  Beta  occ. eigenvalues --   -0.08501  -0.08501  -0.07534  -0.07534   0.24463
  Beta  occ. eigenvalues --    0.24463
  Beta virt. eigenvalues --    0.39935   0.39935   0.76030   0.83566   1.13814
  Beta virt. eigenvalues --    1.16744   1.18742   1.19694   1.19694   1.21709
  Beta virt. eigenvalues --    1.21709   1.26921   1.26921   1.35662   1.35662

 Mulliken charges and spin densities:
               1          2
     1  O   -0.362991   0.687720
     2  O   -0.637009   0.312280
     3  O   -0.637009   0.312280
     4  O   -0.362991   0.687720
 Sum of Mulliken charges =  -2.00000   2.00000

 Dipole moment (field-independent basis, Debye):
    X=             -0.0000    Y=              0.0000    Z=              0.0000  Tot=              0.0000
 Quadrupole moment (field-independent basis, Debye-Ang):
   XX=            -25.0279   YY=            -25.0279   ZZ=            -81.9550
   XY=              0.0000   XZ=              0.0000   YZ=              0.0000

 Normal termination of Gaussian 16 at Sat Dec 31 21:35:49 2022.
