 Gaussian 16, Revision A.03,
 Gaussian 16:  ES64L-G16RevA.03 25-Dec-2016

 -------------------------------------
 #p CCSD(T)/cc-pVTZ Guess=Read SCF=XQC
 -------------------------------------

 -------
 O2_O2_3
 -------
 Symbolic Z-matrix:
 Charge = -2 Multiplicity = 3

                         Standard orientation:
 ---------------------------------------------------------------------
 Center     Atomic      Atomic             Coordinates (Angstroms)
 Number     Number       Type             X           Y           Z
 ---------------------------------------------------------------------
      1          8           0        0.000000    0.000000    0.813813
      2          8           0        0.000000    0.000000    2.166194
      3          8           0        0.000000    0.000000   -2.166194
      4          8           0        0.000000    0.000000   -0.813813
 ---------------------------------------------------------------------

 SCF Done:  E(UHF) =  -298.920068462     A.U. after   13 cycles
 E2 =    -0.1022272473D+01 EUMP2 =    -0.29994234093514D+03
 CCSD(T)
 CCSD(T)= -0.29997892485D+03

 The electronic state is 3-SGG.
 Alpha  occ. eigenvalues --  -20.19275 -20.19274 -20.07009 -20.07008  -1.04755
 Alpha  occ. eigenvalues --   -0.99147  -0.69807  -0.57429  -0.23832  -0.23832
 Alpha  occ. eigenvalues --   -0.21151  -0.17512  -0.17512   0.00230   0.02430
 Alpha  occ. eigenvalues --    0.02430   0.06082   0.06082
 Alpha virt. eigenvalues --    0.78720   0.89818   1.16831   1.16831   1.17742
 Alpha virt. eigenvalues --    1.18023   1.22960   1.22960   1.28025   1.28025
 Alpha virt. eigenvalues --    1.37960   1.38674   1.42624   1.42624   1.53455

  Beta  occ. eigenvalues --  -20.14180 -20.14163 -20.05780 -20.05780  -0.94371
  Beta  occ. eigenvalues --   -0.90111  -0.62729  -0.44981  -0.17992  -0.07201
  Beta  occ. eigenvalues --   -0.07201  -0.01883  -0.01883   0.04397   0.19903
  Beta  occ. eigenvalues --    0.19903
  Beta virt. eigenvalues --    0.54570   0.54570   0.82745   0.93471   1.18014
  Beta virt. eigenvalues --    1.20116   1.23762   1.23762   1.26221   1.26221
  Beta virt. eigenvalues --    1.32545   1.32545   1.38708   1.39005   1.48859

 Mulliken charges and spin densities:
               1          2
     1  O   -0.179190   0.856822
     2  O   -0.820810   0.143178
     3  O   -0.820810   0.143178
     4  O   -0.179190   0.856822
 Sum of Mulliken charges =  -2.00000   2.00000

 Dipole moment (field-independent basis, Debye):
    X=             -0.0000    Y=             -0.0000    Z=             -0.0000  Tot=              0.0000
 Quadrupole moment (field-independent basis, Debye-Ang):
   XX=            -25.0262   YY=            -25.0262   ZZ=            -64.6881
   XY=              0.0000   XZ=              0.0000   YZ=              0.0000

 Normal termination of Gaussian 16 at Sat Dec 31 19:49:27 2022.
