 Gaussian 16, Revision A.03,
 Gaussian 16:  ES64L-G16RevA.03 25-Dec-2016

 -------------------------------------
 #p CCSD(T)/cc-pVTZ Guess=Read SCF=XQC
 -------------------------------------

 ---------
 O2_O2_198
 ---------
 Symbolic Z-matrix:
 Charge = -2 Multiplicity = 3

                         Standard orientation:
 ---------------------------------------------------------------------
 Center     Atomic      Atomic             Coordinates (Angstroms)
 Number     Number       Type             X           Y           Z
 ---------------------------------------------------------------------
      1          8           0        0.000000    0.000000    2.194275
      2          8           0        0.000000    0.000000    3.546655
      3          8           0        0.000000    0.000000   -3.546655
      4          8           0        0.000000    0.000000   -2.194275
 ---------------------------------------------------------------------

 SCF Done:  E(UHF) =  -298.957338200     A.U. after   11 cycles
 E2 =    -0.1212880625D+01 EUMP2 =    -0.30017021882516D+03
 CCSD(T)
 CCSD(T)= -0.30012351609D+03

 The electronic state is 3-SGG.
 Alpha  occ. eigenvalues --  -20.22225 -20.22225 -20.19890 -20.19890  -1.06921
 Alpha  occ. eigenvalues --   -1.06919  -0.70500  -0.70486  -0.25463  -0.25463
 Alpha  occ. eigenvalues --   -0.25457  -0.25457  -0.19842  -0.19751  -0.04507
 Alpha  occ. eigenvalues --   -0.04507  -0.04494  -0.04494
 Alpha virt. eigenvalues --    0.71277   0.73265   1.10690   1.13244   1.13244
 Alpha virt. eigenvalues --    1.13364   1.13364   1.13613   1.16288   1.20286
 Alpha virt. eigenvalues --    1.21781   1.21781   1.22120   1.22120   1.35380

  Beta  occ. eigenvalues --  -20.18741 -20.18740 -20.17294 -20.17294  -0.98822
  Beta  occ. eigenvalues --   -0.98806  -0.59221  -0.59095  -0.17328  -0.17203
  Beta  occ. eigenvalues --   -0.11042  -0.11042  -0.10737  -0.10737   0.23917
  Beta  occ. eigenvalues --    0.23917
  Beta virt. eigenvalues --    0.33762   0.33762   0.74292   0.76621   1.12768
  Beta virt. eigenvalues --    1.15053   1.17032   1.18155   1.18155   1.18247
  Beta virt. eigenvalues --    1.18247   1.21472   1.27113   1.27113   1.27471

 Mulliken charges and spin densities:
               1          2
     1  O   -0.427720   0.594790
     2  O   -0.572280   0.405210
     3  O   -0.572280   0.405210
     4  O   -0.427720   0.594790
 Sum of Mulliken charges =  -2.00000   2.00000

 Dipole moment (field-independent basis, Debye):
    X=             -0.0000    Y=              0.0000    Z=              0.0000  Tot=              0.0000
 Quadrupole moment (field-independent basis, Debye-Ang):
   XX=            -24.9515   YY=            -24.9515   ZZ=           -115.5807
   XY=              0.0000   XZ=              0.0000   YZ=              0.0000

 7543\PMP3-0=-300.1648017\MP4SDQ=-299.878887\CCSD=-300.0101958\CCSD(T)=
 Normal termination of Gaussian 16 at Sat Dec 31 23:46:10 2022.
