 Gaussian 16, Revision A.03,
 Gaussian 16:  ES64L-G16RevA.03 25-Dec-2016

 -------------------------------------
 #p CCSD(T)/cc-pVTZ Guess=Read SCF=XQC
 -------------------------------------

 ---------
 O2_O2_221
 ---------
 Symbolic Z-matrix:
 Charge = -2 Multiplicity = 3

                         Standard orientation:
 ---------------------------------------------------------------------
 Center     Atomic      Atomic             Coordinates (Angstroms)
 Number     Number       Type             X           Y           Z
 ---------------------------------------------------------------------
      1          8           0        0.000000    0.000000    2.357099
      2          8           0        0.000000    0.000000    3.709479
      3          8           0        0.000000    0.000000   -3.709479
      4          8           0        0.000000    0.000000   -2.357099
 ---------------------------------------------------------------------

 SCF Done:  E(UHF) =  -298.959273388     A.U. after   11 cycles
 E2 =    -0.1231403150D+01 EUMP2 =    -0.30019067653833D+03
 CCSD(T)
 CCSD(T)= -0.30012989337D+03

 The electronic state is 3-SGG.
 Alpha  occ. eigenvalues --  -20.22592 -20.22592 -20.20521 -20.20521  -1.07402
 Alpha  occ. eigenvalues --   -1.07401  -0.71007  -0.71002  -0.25938  -0.25938
 Alpha  occ. eigenvalues --   -0.25935  -0.25935  -0.20330  -0.20290  -0.05013
 Alpha  occ. eigenvalues --   -0.05013  -0.05008  -0.05008
 Alpha virt. eigenvalues --    0.71269   0.72259   1.11240   1.12711   1.12801
 Alpha virt. eigenvalues --    1.12801   1.12845   1.12845   1.16368   1.18082
 Alpha virt. eigenvalues --    1.21384   1.21384   1.21510   1.21510   1.34910

  Beta  occ. eigenvalues --  -20.19157 -20.19156 -20.17876 -20.17876  -0.99313
  Beta  occ. eigenvalues --   -0.99302  -0.59712  -0.59619  -0.17813  -0.17753
  Beta  occ. eigenvalues --   -0.11497  -0.11497  -0.11243  -0.11243   0.23714
  Beta  occ. eigenvalues --    0.23714
  Beta virt. eigenvalues --    0.32935   0.32935   0.74370   0.75532   1.13200
  Beta virt. eigenvalues --    1.14342   1.17174   1.17710   1.17710   1.17746
  Beta virt. eigenvalues --    1.17746   1.19136   1.26714   1.26714   1.26847

 Mulliken charges and spin densities:
               1          2
     1  O   -0.435308   0.584577
     2  O   -0.564692   0.415423
     3  O   -0.564692   0.415423
     4  O   -0.435308   0.584577
 Sum of Mulliken charges =  -2.00000   2.00000

 Dipole moment (field-independent basis, Debye):
    X=             -0.0000    Y=              0.0000    Z=             -0.0000  Tot=              0.0000
 Quadrupole moment (field-independent basis, Debye-Ang):
   XX=            -24.9476   YY=            -24.9476   ZZ=           -124.4988
   XY=              0.0000   XZ=              0.0000   YZ=              0.0000

 Normal termination of Gaussian 16 at Sun Jan  1 00:14:28 2023.
