 Gaussian 16, Revision A.03,
 Gaussian 16:  ES64L-G16RevA.03 25-Dec-2016

 -------------------------------------
 #p CCSD(T)/cc-pVTZ Guess=Read SCF=XQC
 -------------------------------------

 ---------
 O2_O2_199
 ---------
 Symbolic Z-matrix:
 Charge = -2 Multiplicity = 3

                         Standard orientation:
 ---------------------------------------------------------------------
 Center     Atomic      Atomic             Coordinates (Angstroms)
 Number     Number       Type             X           Y           Z
 ---------------------------------------------------------------------
      1          8           0        0.000000    0.000000    2.201354
      2          8           0        0.000000    0.000000    3.553735
      3          8           0        0.000000    0.000000   -3.553735
      4          8           0        0.000000    0.000000   -2.201354
 ---------------------------------------------------------------------

 SCF Done:  E(UHF) =  -298.957420791     A.U. after   11 cycles
 E2 =    -0.1213698819D+01 EUMP2 =    -0.30017111960919D+03
 CCSD(T)
 CCSD(T)= -0.30012380741D+03

 The electronic state is 3-SGG.
 Alpha  occ. eigenvalues --  -20.22241 -20.22241 -20.19919 -20.19919  -1.06943
 Alpha  occ. eigenvalues --   -1.06941  -0.70523  -0.70510  -0.25484  -0.25484
 Alpha  occ. eigenvalues --   -0.25478  -0.25478  -0.19864  -0.19776  -0.04530
 Alpha  occ. eigenvalues --   -0.04530  -0.04517  -0.04517
 Alpha virt. eigenvalues --    0.71282   0.73216   1.10730   1.13224   1.13224
 Alpha virt. eigenvalues --    1.13340   1.13340   1.13575   1.16293   1.20158
 Alpha virt. eigenvalues --    1.21765   1.21765   1.22090   1.22090   1.35359

  Beta  occ. eigenvalues --  -20.18760 -20.18759 -20.17321 -20.17321  -0.98844
  Beta  occ. eigenvalues --   -0.98829  -0.59244  -0.59119  -0.17349  -0.17229
  Beta  occ. eigenvalues --   -0.11062  -0.11062  -0.10760  -0.10760   0.23908
  Beta  occ. eigenvalues --    0.23908
  Beta virt. eigenvalues --    0.33724   0.33724   0.74301   0.76568   1.12803
  Beta virt. eigenvalues --    1.15023   1.17040   1.18136   1.18136   1.18224
  Beta virt. eigenvalues --    1.18224   1.21338   1.27096   1.27096   1.27440

 Mulliken charges and spin densities:
               1          2
     1  O   -0.428078   0.594302
     2  O   -0.571922   0.405698
     3  O   -0.571922   0.405698
     4  O   -0.428078   0.594302
 Sum of Mulliken charges =  -2.00000   2.00000

 Dipole moment (field-independent basis, Debye):
    X=             -0.0000    Y=              0.0000    Z=             -0.0000  Tot=              0.0000
 Quadrupole moment (field-independent basis, Debye-Ang):
   XX=            -24.9513   YY=            -24.9513   ZZ=           -115.9572
   XY=              0.0000   XZ=              0.0000   YZ=              0.0000

 Normal termination of Gaussian 16 at Sat Dec 31 23:47:25 2022.
