 Gaussian 16, Revision A.03,
 Gaussian 16:  ES64L-G16RevA.03 25-Dec-2016

 -------------------------------------
 #p CCSD(T)/cc-pVTZ Guess=Read SCF=XQC
 -------------------------------------

 ---------
 O2_O2_130
 ---------
 Symbolic Z-matrix:
 Charge = -2 Multiplicity = 3

                         Standard orientation:
 ---------------------------------------------------------------------
 Center     Atomic      Atomic             Coordinates (Angstroms)
 Number     Number       Type             X           Y           Z
 ---------------------------------------------------------------------
      1          8           0        0.000000    0.000000    1.712883
      2          8           0        0.000000    0.000000    3.065264
      3          8           0        0.000000    0.000000   -3.065264
      4          8           0        0.000000    0.000000   -1.712883
 ---------------------------------------------------------------------

 SCF Done:  E(UHF) =  -298.953663589     A.U. after   11 cycles
 E2 =    -0.1152442740D+01 EUMP2 =    -0.30010610632921D+03
 CCSD(T)
 CCSD(T)= -0.30010011539D+03

 The electronic state is 3-SGG.
 Alpha  occ. eigenvalues --  -20.21169 -20.21169 -20.17460 -20.17460  -1.05283
 Alpha  occ. eigenvalues --   -1.05256  -0.68739  -0.68574  -0.23878  -0.23878
 Alpha  occ. eigenvalues --   -0.23802  -0.23802  -0.18291  -0.17608  -0.02732
 Alpha  occ. eigenvalues --   -0.02732  -0.02594  -0.02594
 Alpha virt. eigenvalues --    0.70993   0.77364   1.07143   1.14244   1.14244
 Alpha virt. eigenvalues --    1.15389   1.15582   1.15582   1.16720   1.22229
 Alpha virt. eigenvalues --    1.22229   1.25659   1.25659   1.36834   1.37125

  Beta  occ. eigenvalues --  -20.17420 -20.17419 -20.15094 -20.15094  -0.97075
  Beta  occ. eigenvalues --   -0.97009  -0.57540  -0.57073  -0.15812  -0.14950
  Beta  occ. eigenvalues --   -0.09473  -0.09473  -0.08873  -0.08873   0.24442
  Beta  occ. eigenvalues --    0.24442
  Beta virt. eigenvalues --    0.37099   0.37099   0.73685   0.81078   1.09445
  Beta virt. eigenvalues --    1.16501   1.17501   1.19389   1.19389   1.20265
  Beta virt. eigenvalues --    1.20265   1.27430   1.27430   1.31194   1.31194

 Mulliken charges and spin densities:
               1          2
     1  O   -0.394140   0.642544
     2  O   -0.605860   0.357456
     3  O   -0.605860   0.357456
     4  O   -0.394140   0.642544
 Sum of Mulliken charges =  -2.00000   2.00000

 Dipole moment (field-independent basis, Debye):
    X=             -0.0000    Y=             -0.0000    Z=             -0.0000  Tot=              0.0000
 Quadrupole moment (field-independent basis, Debye-Ang):
   XX=            -24.9836   YY=            -24.9836   ZZ=            -92.4400
   XY=              0.0000   XZ=              0.0000   YZ=              0.0000

 Normal termination of Gaussian 16 at Sat Dec 31 22:21:21 2022.
