 Gaussian 16, Revision A.03,
 Gaussian 16:  ES64L-G16RevA.03 25-Dec-2016

 -------------------------------------
 #p CCSD(T)/cc-pVTZ Guess=Read SCF=XQC
 -------------------------------------

 --------
 O2_O2_66
 --------
 Symbolic Z-matrix:
 Charge = -2 Multiplicity = 3

                         Standard orientation:
 ---------------------------------------------------------------------
 Center     Atomic      Atomic             Coordinates (Angstroms)
 Number     Number       Type             X           Y           Z
 ---------------------------------------------------------------------
      1          8           0        0.000000    0.000000    1.259809
      2          8           0        0.000000    0.000000    2.612189
      3          8           0        0.000000    0.000000   -2.612189
      4          8           0        0.000000    0.000000   -1.259809
 ---------------------------------------------------------------------

 SCF Done:  E(UHF) =  -298.961591560     A.U. after   12 cycles
 E2 =    -0.1080797263D+01 EUMP2 =    -0.30004238882266D+03
 CCSD(T)
 CCSD(T)= -0.30007006432D+03

 The electronic state is 3-SGG.
 Alpha  occ. eigenvalues --  -20.20549 -20.20549 -20.13814 -20.13813  -1.03665
 Alpha  occ. eigenvalues --   -1.03304  -0.67037  -0.65580  -0.22488  -0.22488
 Alpha  occ. eigenvalues --   -0.21824  -0.21824  -0.17490  -0.13692  -0.00594
 Alpha  occ. eigenvalues --   -0.00594   0.00175   0.00175
 Alpha virt. eigenvalues --    0.75135   0.81617   1.13505   1.13505   1.15817
 Alpha virt. eigenvalues --    1.17632   1.18756   1.18756   1.22536   1.22708
 Alpha virt. eigenvalues --    1.22708   1.33956   1.33956   1.38332   1.39160

  Beta  occ. eigenvalues --  -20.16198 -20.16194 -20.11898 -20.11898  -0.95000
  Beta  occ. eigenvalues --   -0.94583  -0.56275  -0.53676  -0.15154  -0.10679
  Beta  occ. eigenvalues --   -0.07779  -0.07779  -0.06336  -0.06336   0.24121
  Beta  occ. eigenvalues --    0.24121
  Beta virt. eigenvalues --    0.42852   0.42852   0.78530   0.85512   1.16955
  Beta virt. eigenvalues --    1.18091   1.20003   1.20003   1.22835   1.22835
  Beta virt. eigenvalues --    1.24699   1.27037   1.27037   1.38706   1.39695

 Mulliken charges and spin densities:
               1          2
     1  O   -0.329849   0.733460
     2  O   -0.670151   0.266540
     3  O   -0.670151   0.266540
     4  O   -0.329849   0.733460
 Sum of Mulliken charges =  -2.00000   2.00000

 Dipole moment (field-independent basis, Debye):
    X=             -0.0000    Y=              0.0000    Z=              0.0000  Tot=              0.0000
 Quadrupole moment (field-independent basis, Debye-Ang):
   XX=            -25.0748   YY=            -25.0748   ZZ=            -75.2884
   XY=              0.0000   XZ=              0.0000   YZ=              0.0000

 Normal termination of Gaussian 16 at Sat Dec 31 21:03:34 2022.
