 Gaussian 16, Revision A.03,
 Gaussian 16:  ES64L-G16RevA.03 25-Dec-2016

 -------------------------------------
 #p CCSD(T)/cc-pVTZ Guess=Read SCF=XQC
 -------------------------------------

 --------
 O2_O2_39
 --------
 Symbolic Z-matrix:
 Charge = -2 Multiplicity = 3

                         Standard orientation:
 ---------------------------------------------------------------------
 Center     Atomic      Atomic             Coordinates (Angstroms)
 Number     Number       Type             X           Y           Z
 ---------------------------------------------------------------------
      1          8           0        0.000000    0.000000    1.068668
      2          8           0        0.000000    0.000000    2.421048
      3          8           0        0.000000    0.000000   -2.421048
      4          8           0        0.000000    0.000000   -1.068668
 ---------------------------------------------------------------------

 SCF Done:  E(UHF) =  -298.966709538     A.U. after   12 cycles
 E2 =    -0.1048410699D+01 EUMP2 =    -0.30001512023702D+03
 CCSD(T)
 CCSD(T)= -0.30005157099D+03

 The electronic state is 3-SGG.
 Alpha  occ. eigenvalues --  -20.20209 -20.20208 -20.11537 -20.11537  -1.03204
 Alpha  occ. eigenvalues --   -1.02085  -0.66879  -0.63230  -0.22237  -0.22237
 Alpha  occ. eigenvalues --   -0.20557  -0.20557  -0.18123  -0.10217   0.00553
 Alpha  occ. eigenvalues --    0.00553   0.02053   0.02053
 Alpha virt. eigenvalues --    0.76984   0.84023   1.14179   1.14179   1.16331
 Alpha virt. eigenvalues --    1.18245   1.20325   1.20325   1.24139   1.24139
 Alpha virt. eigenvalues --    1.35763   1.38129   1.38129   1.38731   1.40799

  Beta  occ. eigenvalues --  -20.15500 -20.15494 -20.09907 -20.09907  -0.94107
  Beta  occ. eigenvalues --   -0.93084  -0.56890  -0.51039  -0.15795  -0.07127
  Beta  occ. eigenvalues --   -0.07127  -0.06891  -0.04839  -0.04839   0.23152
  Beta  occ. eigenvalues --    0.23152
  Beta virt. eigenvalues --    0.46863   0.46863   0.80754   0.87937   1.17624
  Beta virt. eigenvalues --    1.18599   1.21295   1.21295   1.24054   1.24054
  Beta virt. eigenvalues --    1.28282   1.28282   1.37745   1.39037   1.41153

 Mulliken charges and spin densities:
               1          2
     1  O   -0.282183   0.788917
     2  O   -0.717817   0.211083
     3  O   -0.717817   0.211083
     4  O   -0.282183   0.788917
 Sum of Mulliken charges =  -2.00000   2.00000

 Dipole moment (field-independent basis, Debye):
    X=             -0.0000    Y=              0.0000    Z=             -0.0000  Tot=              0.0000
 Quadrupole moment (field-independent basis, Debye-Ang):
   XX=            -25.1165   YY=            -25.1165   ZZ=            -69.6273
   XY=              0.0000   XZ=              0.0000   YZ=              0.0000

 Normal termination of Gaussian 16 at Sat Dec 31 20:31:15 2022.
