 Gaussian 16, Revision A.03,
 Gaussian 16:  ES64L-G16RevA.03 25-Dec-2016

 -------------------------------------
 #p CCSD(T)/cc-pVTZ Guess=Read SCF=XQC
 -------------------------------------

 ---------
 O2_O2_279
 ---------
 Symbolic Z-matrix:
 Charge = -2 Multiplicity = 3

                         Standard orientation:
 ---------------------------------------------------------------------
 Center     Atomic      Atomic             Coordinates (Angstroms)
 Number     Number       Type             X           Y           Z
 ---------------------------------------------------------------------
      1          8           0        0.000000    0.000000    2.767698
      2          8           0        0.000000    0.000000    4.120078
      3          8           0        0.000000    0.000000   -4.120078
      4          8           0        0.000000    0.000000   -2.767698
 ---------------------------------------------------------------------

 SCF Done:  E(UHF) =  -298.963925660     A.U. after   11 cycles
 E2 =    -0.1276413659D+01 EUMP2 =    -0.30024033931886D+03
 CCSD(T)
 CCSD(T)= -0.30014337338D+03

 The electronic state is 3-SGG.
 Alpha  occ. eigenvalues --  -20.23420 -20.23420 -20.21825 -20.21825  -1.08437
 Alpha  occ. eigenvalues --   -1.08437  -0.72089  -0.72088  -0.26965  -0.26965
 Alpha  occ. eigenvalues --   -0.26965  -0.26965  -0.21399  -0.21396  -0.06092
 Alpha  occ. eigenvalues --   -0.06092  -0.06092  -0.06092
 Alpha virt. eigenvalues --    0.70580   0.70679   1.10877   1.11024   1.11793
 Alpha virt. eigenvalues --    1.11793   1.11795   1.11795   1.15802   1.15925
 Alpha virt. eigenvalues --    1.20378   1.20378   1.20385   1.20385   1.33891

  Beta  occ. eigenvalues --  -20.20073 -20.20073 -20.19089 -20.19089  -1.00361
  Beta  occ. eigenvalues --   -1.00355  -0.60766  -0.60712  -0.18881  -0.18870
  Beta  occ. eigenvalues --   -0.12483  -0.12483  -0.12314  -0.12314   0.23246
  Beta  occ. eigenvalues --    0.23246
  Beta virt. eigenvalues --    0.31238   0.31238   0.73753   0.73869   1.12742
  Beta virt. eigenvalues --    1.12871   1.16675   1.16713   1.16713   1.16716
  Beta virt. eigenvalues --    1.16716   1.16825   1.25699   1.25699   1.25707

 Mulliken charges and spin densities:
               1          2
     1  O   -0.449842   0.565563
     2  O   -0.550158   0.434437
     3  O   -0.550158   0.434437
     4  O   -0.449842   0.565563
 Sum of Mulliken charges =  -2.00000   2.00000

 Dipole moment (field-independent basis, Debye):
    X=             -0.0000    Y=              0.0000    Z=              0.0000  Tot=              0.0000
 Quadrupole moment (field-independent basis, Debye-Ang):
   XX=            -24.9426   YY=            -24.9426   ZZ=           -149.3743
   XY=              0.0000   XZ=              0.0000   YZ=              0.0000

 Normal termination of Gaussian 16 at Sun Jan  1 01:25:34 2023.
