 Gaussian 16, Revision A.03,
 Gaussian 16:  ES64L-G16RevA.03 25-Dec-2016

 -------------------------------------
 #p CCSD(T)/cc-pVTZ Guess=Read SCF=XQC
 -------------------------------------

 ---------
 O2_O2_196
 ---------
 Symbolic Z-matrix:
 Charge = -2 Multiplicity = 3

                         Standard orientation:
 ---------------------------------------------------------------------
 Center     Atomic      Atomic             Coordinates (Angstroms)
 Number     Number       Type             X           Y           Z
 ---------------------------------------------------------------------
      1          8           0        0.000000    0.000000    2.180117
      2          8           0        0.000000    0.000000    3.532497
      3          8           0        0.000000    0.000000   -3.532497
      4          8           0        0.000000    0.000000   -2.180117
 ---------------------------------------------------------------------

 SCF Done:  E(UHF) =  -298.957173833     A.U. after   11 cycles
 E2 =    -0.1211240222D+01 EUMP2 =    -0.30016841405469D+03
 CCSD(T)
 CCSD(T)= -0.30012292926D+03

 The electronic state is 3-SGG.
 Alpha  occ. eigenvalues --  -20.22192 -20.22192 -20.19831 -20.19831  -1.06877
 Alpha  occ. eigenvalues --   -1.06875  -0.70454  -0.70439  -0.25420  -0.25420
 Alpha  occ. eigenvalues --   -0.25413  -0.25413  -0.19798  -0.19701  -0.04461
 Alpha  occ. eigenvalues --   -0.04461  -0.04446  -0.04446
 Alpha virt. eigenvalues --    0.71267   0.73365   1.10606   1.13282   1.13282
 Alpha virt. eigenvalues --    1.13413   1.13413   1.13689   1.16276   1.20553
 Alpha virt. eigenvalues --    1.21813   1.21813   1.22181   1.22181   1.35423

  Beta  occ. eigenvalues --  -20.18704 -20.18703 -20.17241 -20.17240  -0.98777
  Beta  occ. eigenvalues --   -0.98761  -0.59177  -0.59046  -0.17284  -0.17152
  Beta  occ. eigenvalues --   -0.11000  -0.11000  -0.10691  -0.10691   0.23935
  Beta  occ. eigenvalues --    0.23935
  Beta virt. eigenvalues --    0.33839   0.33839   0.74271   0.76730   1.12695
  Beta virt. eigenvalues --    1.15112   1.17017   1.18195   1.18195   1.18294
  Beta virt. eigenvalues --    1.18294   1.21749   1.27145   1.27145   1.27534

 Mulliken charges and spin densities:
               1          2
     1  O   -0.426996   0.595780
     2  O   -0.573004   0.404220
     3  O   -0.573004   0.404220
     4  O   -0.426996   0.595780
 Sum of Mulliken charges =  -2.00000   2.00000

 Dipole moment (field-independent basis, Debye):
    X=             -0.0000    Y=              0.0000    Z=             -0.0000  Tot=              0.0000
 Quadrupole moment (field-independent basis, Debye-Ang):
   XX=            -24.9519   YY=            -24.9519   ZZ=           -114.8308
   XY=              0.0000   XZ=              0.0000   YZ=              0.0000

 Normal termination of Gaussian 16 at Sat Dec 31 23:43:39 2022.
