 Gaussian 16, Revision A.03,
 Gaussian 16:  ES64L-G16RevA.03 25-Dec-2016

 -------------------------------------
 #p CCSD(T)/cc-pVTZ Guess=Read SCF=XQC
 -------------------------------------

 ---------
 O2_O2_178
 ---------
 Symbolic Z-matrix:
 Charge = -2 Multiplicity = 3

                         Standard orientation:
 ---------------------------------------------------------------------
 Center     Atomic      Atomic             Coordinates (Angstroms)
 Number     Number       Type             X           Y           Z
 ---------------------------------------------------------------------
      1          8           0        0.000000    0.000000    2.052690
      2          8           0        0.000000    0.000000    3.405070
      3          8           0        0.000000    0.000000   -3.405070
      4          8           0        0.000000    0.000000   -2.052690
 ---------------------------------------------------------------------

 SCF Done:  E(UHF) =  -298.955767823     A.U. after   11 cycles
 E2 =    -0.1196198693D+01 EUMP2 =    -0.30015196651679D+03
 CCSD(T)
 CCSD(T)= -0.30011739754D+03

 The electronic state is 3-SGG.
 Alpha  occ. eigenvalues --  -20.21898 -20.21898 -20.19275 -20.19275  -1.06470
 Alpha  occ. eigenvalues --   -1.06466  -0.70021  -0.69991  -0.25020  -0.25020
 Alpha  occ. eigenvalues --   -0.25006  -0.25006  -0.19394  -0.19221  -0.04029
 Alpha  occ. eigenvalues --   -0.04029  -0.04000  -0.04000
 Alpha virt. eigenvalues --    0.71096   0.74347   1.09564   1.13625   1.13625
 Alpha virt. eigenvalues --    1.13891   1.13891   1.14318   1.16208   1.22066
 Alpha virt. eigenvalues --    1.22066   1.22807   1.22807   1.23677   1.35820

  Beta  occ. eigenvalues --  -20.18360 -20.18359 -20.16730 -20.16730  -0.98356
  Beta  occ. eigenvalues --   -0.98333  -0.58759  -0.58585  -0.16884  -0.16656
  Beta  occ. eigenvalues --   -0.10614  -0.10614  -0.10251  -0.10251   0.24093
  Beta  occ. eigenvalues --    0.24093
  Beta virt. eigenvalues --    0.34580   0.34580   0.73996   0.77804   1.11744
  Beta virt. eigenvalues --    1.15605   1.16935   1.18552   1.18552   1.18747
  Beta virt. eigenvalues --    1.18747   1.24943   1.27394   1.27394   1.28181

 Mulliken charges and spin densities:
               1          2
     1  O   -0.419917   0.605581
     2  O   -0.580083   0.394419
     3  O   -0.580083   0.394419
     4  O   -0.419917   0.605581
 Sum of Mulliken charges =  -2.00000   2.00000

 Dipole moment (field-independent basis, Debye):
    X=             -0.0000    Y=              0.0000    Z=             -0.0000  Tot=              0.0000
 Quadrupole moment (field-independent basis, Debye-Ang):
   XX=            -24.9567   YY=            -24.9567   ZZ=           -108.2676
   XY=              0.0000   XZ=              0.0000   YZ=              0.0000

 Normal termination of Gaussian 16 at Sat Dec 31 23:20:45 2022.
