 Gaussian 16, Revision A.03,
 Gaussian 16:  ES64L-G16RevA.03 25-Dec-2016

 -------------------------------------
 #p CCSD(T)/cc-pVTZ Guess=Read SCF=XQC
 -------------------------------------

 --------
 O2_O2_30
 --------
 Symbolic Z-matrix:
 Charge = -2 Multiplicity = 3

                         Standard orientation:
 ---------------------------------------------------------------------
 Center     Atomic      Atomic             Coordinates (Angstroms)
 Number     Number       Type             X           Y           Z
 ---------------------------------------------------------------------
      1          8           0        0.000000    0.000000    1.004954
      2          8           0        0.000000    0.000000    2.357334
      3          8           0        0.000000    0.000000   -2.357334
      4          8           0        0.000000    0.000000   -1.004954
 ---------------------------------------------------------------------

 SCF Done:  E(UHF) =  -298.965378465     A.U. after   12 cycles
 E2 =    -0.1038788843D+01 EUMP2 =    -0.30000416730789D+03
 CCSD(T)
 CCSD(T)= -0.30004219002D+03

 The electronic state is 3-SGG.
 Alpha  occ. eigenvalues --  -20.20014 -20.20012 -20.10615 -20.10615  -1.03182
 Alpha  occ. eigenvalues --   -1.01537  -0.67106  -0.62141  -0.22294  -0.22294
 Alpha  occ. eigenvalues --   -0.19983  -0.19983  -0.18611  -0.08480   0.00982
 Alpha  occ. eigenvalues --    0.00982   0.02858   0.02858
 Alpha virt. eigenvalues --    0.77540   0.85061   1.14771   1.14771   1.16565
 Alpha virt. eigenvalues --    1.18304   1.20905   1.20905   1.24862   1.24862
 Alpha virt. eigenvalues --    1.38117   1.38802   1.39406   1.39406   1.43370

  Beta  occ. eigenvalues --  -20.15189 -20.15182 -20.09088 -20.09088  -0.93879
  Beta  occ. eigenvalues --   -0.92467  -0.57573  -0.49853  -0.16214  -0.06963
  Beta  occ. eigenvalues --   -0.06963  -0.05007  -0.04237  -0.04237   0.22604
  Beta  occ. eigenvalues --    0.22604
  Beta virt. eigenvalues --    0.48514   0.48514   0.81418   0.88959   1.17980
  Beta virt. eigenvalues --    1.18602   1.21981   1.21981   1.24510   1.24510
  Beta virt. eigenvalues --    1.29071   1.29071   1.39068   1.39525   1.43997

 Mulliken charges and spin densities:
               1          2
     1  O   -0.262108   0.808234
     2  O   -0.737892   0.191766
     3  O   -0.737892   0.191766
     4  O   -0.262108   0.808234
 Sum of Mulliken charges =  -2.00000   2.00000

 Dipole moment (field-independent basis, Debye):
    X=             -0.0000    Y=              0.0000    Z=             -0.0000  Tot=              0.0000
 Quadrupole moment (field-independent basis, Debye-Ang):
   XX=            -25.1192   YY=            -25.1192   ZZ=            -68.0379
   XY=              0.0000   XZ=              0.0000   YZ=              0.0000

 Normal termination of Gaussian 16 at Sat Dec 31 20:20:34 2022.
