 Gaussian 16, Revision A.03,
 Gaussian 16:  ES64L-G16RevA.03 25-Dec-2016

 -------------------------------------
 #p CCSD(T)/cc-pVTZ Guess=Read SCF=XQC
 -------------------------------------

 ---------
 O2_O2_233
 ---------
 Symbolic Z-matrix:
 Charge = -2 Multiplicity = 3

                         Standard orientation:
 ---------------------------------------------------------------------
 Center     Atomic      Atomic             Coordinates (Angstroms)
 Number     Number       Type             X           Y           Z
 ---------------------------------------------------------------------
      1          8           0        0.000000    0.000000    2.442051
      2          8           0        0.000000    0.000000    3.794431
      3          8           0        0.000000    0.000000   -3.794431
      4          8           0        0.000000    0.000000   -2.442051
 ---------------------------------------------------------------------

 SCF Done:  E(UHF) =  -298.960283780     A.U. after   11 cycles
 E2 =    -0.1240869439D+01 EUMP2 =    -0.30020115321920D+03
 CCSD(T)
 CCSD(T)= -0.30013296641D+03

 The electronic state is 3-SGG.
 Alpha  occ. eigenvalues --  -20.22775 -20.22775 -20.20821 -20.20821  -1.07636
 Alpha  occ. eigenvalues --   -1.07636  -0.71253  -0.71250  -0.26170  -0.26170
 Alpha  occ. eigenvalues --   -0.26168  -0.26168  -0.20570  -0.20545  -0.05259
 Alpha  occ. eigenvalues --   -0.05259  -0.05255  -0.05255
 Alpha virt. eigenvalues --    0.71182   0.71836   1.11295   1.12270   1.12577
 Alpha virt. eigenvalues --    1.12577   1.12602   1.12602   1.16337   1.17386
 Alpha virt. eigenvalues --    1.21168   1.21168   1.21240   1.21240   1.34679

  Beta  occ. eigenvalues --  -20.19362 -20.19362 -20.18155 -20.18155  -0.99551
  Beta  occ. eigenvalues --   -0.99542  -0.59951  -0.59869  -0.18052  -0.18012
  Beta  occ. eigenvalues --   -0.11719  -0.11719  -0.11488  -0.11488   0.23611
  Beta  occ. eigenvalues --    0.23611
  Beta virt. eigenvalues --    0.32543   0.32543   0.74311   0.75079   1.13211
  Beta virt. eigenvalues --    1.13978   1.17171   1.17487   1.17487   1.17509
  Beta virt. eigenvalues --    1.17509   1.18384   1.26496   1.26496   1.26572

 Mulliken charges and spin densities:
               1          2
     1  O   -0.438794   0.579969
     2  O   -0.561206   0.420031
     3  O   -0.561206   0.420031
     4  O   -0.438794   0.579969
 Sum of Mulliken charges =  -2.00000   2.00000

 Dipole moment (field-independent basis, Debye):
    X=             -0.0000    Y=              0.0000    Z=              0.0000  Tot=              0.0000
 Quadrupole moment (field-independent basis, Debye-Ang):
   XX=            -24.9462   YY=            -24.9462   ZZ=           -129.3660
   XY=              0.0000   XZ=              0.0000   YZ=              0.0000

 Normal termination of Gaussian 16 at Sun Jan  1 00:29:07 2023.
