 Gaussian 16, Revision A.03,
 Gaussian 16:  ES64L-G16RevA.03 25-Dec-2016

 -------------------------------------
 #p CCSD(T)/cc-pVTZ Guess=Read SCF=XQC
 -------------------------------------

 ---------
 O2_O2_166
 ---------
 Symbolic Z-matrix:
 Charge = -2 Multiplicity = 3

                         Standard orientation:
 ---------------------------------------------------------------------
 Center     Atomic      Atomic             Coordinates (Angstroms)
 Number     Number       Type             X           Y           Z
 ---------------------------------------------------------------------
      1          8           0        0.000000    0.000000    1.967738
      2          8           0        0.000000    0.000000    3.320118
      3          8           0        0.000000    0.000000   -3.320118
      4          8           0        0.000000    0.000000   -1.967738
 ---------------------------------------------------------------------

 SCF Done:  E(UHF) =  -298.954948184     A.U. after   11 cycles
 E2 =    -0.1185836350D+01 EUMP2 =    -0.30014078453385D+03
 CCSD(T)
 CCSD(T)= -0.30011344234D+03

 The electronic state is 3-SGG.
 Alpha  occ. eigenvalues --  -20.21704 -20.21704 -20.18870 -20.18870  -1.06185
 Alpha  occ. eigenvalues --   -1.06179  -0.69717  -0.69670  -0.24743  -0.24743
 Alpha  occ. eigenvalues --   -0.24721  -0.24721  -0.19117  -0.18869  -0.03724
 Alpha  occ. eigenvalues --   -0.03724  -0.03680  -0.03680
 Alpha virt. eigenvalues --    0.70939   0.75069   1.08674   1.13837   1.13837
 Alpha virt. eigenvalues --    1.14251   1.14251   1.14669   1.16231   1.22187
 Alpha virt. eigenvalues --    1.22187   1.23325   1.23325   1.26588   1.36098

  Beta  occ. eigenvalues --  -20.18126 -20.18125 -20.16362 -20.16362  -0.98058
  Beta  occ. eigenvalues --   -0.98029  -0.58467  -0.58250  -0.16612  -0.16289
  Beta  occ. eigenvalues --   -0.10344  -0.10344  -0.09937  -0.09937   0.24195
  Beta  occ. eigenvalues --    0.24195
  Beta virt. eigenvalues --    0.35126   0.35126   0.73761   0.78593   1.10905
  Beta virt. eigenvalues --    1.15887   1.16969   1.18785   1.18785   1.19082
  Beta virt. eigenvalues --    1.19082   1.27505   1.27505   1.27861   1.28723

 Mulliken charges and spin densities:
               1          2
     1  O   -0.414547   0.613151
     2  O   -0.585453   0.386849
     3  O   -0.585453   0.386849
     4  O   -0.414547   0.613151
 Sum of Mulliken charges =  -2.00000   2.00000

 Dipole moment (field-independent basis, Debye):
    X=             -0.0000    Y=             -0.0000    Z=              0.0000  Tot=              0.0000
 Quadrupole moment (field-independent basis, Debye-Ang):
   XX=            -24.9612   YY=            -24.9612   ZZ=           -104.0796
   XY=              0.0000   XZ=              0.0000   YZ=              0.0000

 Normal termination of Gaussian 16 at Sat Dec 31 23:06:18 2022.
