 Gaussian 16, Revision A.03,
 Gaussian 16:  ES64L-G16RevA.03 25-Dec-2016

 -------------------------------------
 #p CCSD(T)/cc-pVTZ Guess=Read SCF=XQC
 -------------------------------------

 --------
 O2_O2_58
 --------
 Symbolic Z-matrix:
 Charge = -2 Multiplicity = 3

                         Standard orientation:
 ---------------------------------------------------------------------
 Center     Atomic      Atomic             Coordinates (Angstroms)
 Number     Number       Type             X           Y           Z
 ---------------------------------------------------------------------
      1          8           0        0.000000    0.000000    1.203175
      2          8           0        0.000000    0.000000    2.555555
      3          8           0        0.000000    0.000000   -2.555555
      4          8           0        0.000000    0.000000   -1.203175
 ---------------------------------------------------------------------

 SCF Done:  E(UHF) =  -298.963593822     A.U. after   12 cycles
 E2 =    -0.1070985444D+01 EUMP2 =    -0.30003457926626D+03
 CCSD(T)
 CCSD(T)= -0.30006539497D+03

 The electronic state is 3-SGG.
 Alpha  occ. eigenvalues --  -20.20475 -20.20475 -20.13202 -20.13202  -1.03495
 Alpha  occ. eigenvalues --   -1.02991  -0.66908  -0.64997  -0.22373  -0.22373
 Alpha  occ. eigenvalues --   -0.21501  -0.21501  -0.17572  -0.12862  -0.00275
 Alpha  occ. eigenvalues --   -0.00275   0.00663   0.00663
 Alpha virt. eigenvalues --    0.75716   0.82253   1.13539   1.13539   1.15935
 Alpha virt. eigenvalues --    1.17956   1.19202   1.19202   1.23031   1.23031
 Alpha virt. eigenvalues --    1.26258   1.35225   1.35225   1.38472   1.39455

  Beta  occ. eigenvalues --  -20.16020 -20.16015 -20.11366 -20.11366  -0.94723
  Beta  occ. eigenvalues --   -0.94184  -0.56305  -0.53013  -0.15256  -0.09771
  Beta  occ. eigenvalues --   -0.07573  -0.07573  -0.05931  -0.05931   0.23918
  Beta  occ. eigenvalues --    0.23918
  Beta virt. eigenvalues --    0.43909   0.43909   0.79229   0.86161   1.17099
  Beta virt. eigenvalues --    1.18373   1.20248   1.20248   1.23181   1.23181
  Beta virt. eigenvalues --    1.27259   1.27259   1.28400   1.38831   1.39962

 Mulliken charges and spin densities:
               1          2
     1  O   -0.317556   0.749089
     2  O   -0.682444   0.250911
     3  O   -0.682444   0.250911
     4  O   -0.317556   0.749089
 Sum of Mulliken charges =  -2.00000   2.00000

 Dipole moment (field-independent basis, Debye):
    X=             -0.0000    Y=              0.0000    Z=              0.0000  Tot=              0.0000
 Quadrupole moment (field-independent basis, Debye-Ang):
   XX=            -25.0895   YY=            -25.0895   ZZ=            -73.4916
   XY=              0.0000   XZ=              0.0000   YZ=              0.0000

 Normal termination of Gaussian 16 at Sat Dec 31 20:53:58 2022.
