 Gaussian 16, Revision A.03,
 Gaussian 16:  ES64L-G16RevA.03 25-Dec-2016

 -------------------------------------
 #p CCSD(T)/cc-pVTZ Guess=Read SCF=XQC
 -------------------------------------

 ---------
 O2_O2_152
 ---------
 Symbolic Z-matrix:
 Charge = -2 Multiplicity = 3

                         Standard orientation:
 ---------------------------------------------------------------------
 Center     Atomic      Atomic             Coordinates (Angstroms)
 Number     Number       Type             X           Y           Z
 ---------------------------------------------------------------------
      1          8           0        0.000000    0.000000    1.868627
      2          8           0        0.000000    0.000000    3.221008
      3          8           0        0.000000    0.000000   -3.221008
      4          8           0        0.000000    0.000000   -1.868627
 ---------------------------------------------------------------------

 SCF Done:  E(UHF) =  -298.954187290     A.U. after   11 cycles
 E2 =    -0.1173316340D+01 EUMP2 =    -0.30012750363022D+03
 CCSD(T)
 CCSD(T)= -0.30010853292D+03

 The electronic state is 3-SGG.
 Alpha  occ. eigenvalues --  -20.21485 -20.21485 -20.18360 -20.18360  -1.05842
 Alpha  occ. eigenvalues --   -1.05831  -0.69347  -0.69270  -0.24410  -0.24410
 Alpha  occ. eigenvalues --   -0.24375  -0.24375  -0.18791  -0.18420  -0.03353
 Alpha  occ. eigenvalues --   -0.03353  -0.03283  -0.03283
 Alpha virt. eigenvalues --    0.70801   0.75951   1.07695   1.14050   1.14050
 Alpha virt. eigenvalues --    1.14722   1.14722   1.15007   1.16348   1.22262
 Alpha virt. eigenvalues --    1.22262   1.24071   1.24071   1.30927   1.36446

  Beta  occ. eigenvalues --  -20.17851 -20.17850 -20.15901 -20.15901  -0.97692
  Beta  occ. eigenvalues --   -0.97653  -0.58113  -0.57827  -0.16294  -0.15816
  Beta  occ. eigenvalues --   -0.10016  -0.10016  -0.09546  -0.09546   0.24305
  Beta  occ. eigenvalues --    0.24305
  Beta virt. eigenvalues --    0.35826   0.35826   0.73541   0.79555   1.09976
  Beta virt. eigenvalues --    1.16169   1.17105   1.19044   1.19044   1.19510
  Beta virt. eigenvalues --    1.19510   1.27556   1.27556   1.29508   1.29508

 Mulliken charges and spin densities:
               1          2
     1  O   -0.407470   0.623254
     2  O   -0.592530   0.376746
     3  O   -0.592530   0.376746
     4  O   -0.407470   0.623254
 Sum of Mulliken charges =  -2.00000   2.00000

 Dipole moment (field-independent basis, Debye):
    X=             -0.0000    Y=              0.0000    Z=              0.0000  Tot=              0.0000
 Quadrupole moment (field-independent basis, Debye-Ang):
   XX=            -24.9680   YY=            -24.9680   ZZ=            -99.3867
   XY=              0.0000   XZ=              0.0000   YZ=              0.0000

 Normal termination of Gaussian 16 at Sat Dec 31 22:49:13 2022.
