 Gaussian 16, Revision A.03,
 Gaussian 16:  ES64L-G16RevA.03 25-Dec-2016

 -------------------------------------
 #p CCSD(T)/cc-pVTZ Guess=Read SCF=XQC
 -------------------------------------

 ---------
 O2_O2_116
 ---------
 Symbolic Z-matrix:
 Charge = -2 Multiplicity = 3

                         Standard orientation:
 ---------------------------------------------------------------------
 Center     Atomic      Atomic             Coordinates (Angstroms)
 Number     Number       Type             X           Y           Z
 ---------------------------------------------------------------------
      1          8           0        0.000000    0.000000    1.613774
      2          8           0        0.000000    0.000000    2.966154
      3          8           0        0.000000    0.000000   -2.966154
      4          8           0        0.000000    0.000000   -1.613774
 ---------------------------------------------------------------------

 SCF Done:  E(UHF) =  -298.953974204     A.U. after   11 cycles
 E2 =    -0.1138216636D+01 EUMP2 =    -0.30009219084030D+03
 CCSD(T)
 CCSD(T)= -0.30009428218D+03

 The electronic state is 3-SGG.
 Alpha  occ. eigenvalues --  -20.20995 -20.20995 -20.16811 -20.16811  -1.04919
 Alpha  occ. eigenvalues --   -1.04872  -0.68340  -0.68074  -0.23540  -0.23540
 Alpha  occ. eigenvalues --   -0.23417  -0.23417  -0.17997  -0.16999  -0.02312
 Alpha  occ. eigenvalues --   -0.02312  -0.02105  -0.02105
 Alpha virt. eigenvalues --    0.71530   0.78256   1.07942   1.14227   1.14227
 Alpha virt. eigenvalues --    1.15535   1.16203   1.16203   1.17061   1.22156
 Alpha virt. eigenvalues --    1.22156   1.27005   1.27005   1.37225   1.37538

  Beta  occ. eigenvalues --  -20.17152 -20.17150 -20.14518 -20.14517  -0.96656
  Beta  occ. eigenvalues --   -0.96560  -0.57175  -0.56519  -0.15536  -0.14293
  Beta  occ. eigenvalues --   -0.09112  -0.09112  -0.08400  -0.08400   0.24492
  Beta  occ. eigenvalues --    0.24492
  Beta virt. eigenvalues --    0.38051   0.38051   0.74278   0.82026   1.10188
  Beta virt. eigenvalues --    1.16634   1.17858   1.19547   1.19547   1.20792
  Beta virt. eigenvalues --    1.20792   1.27239   1.27239   1.32630   1.32630

 Mulliken charges and spin densities:
               1          2
     1  O   -0.383878   0.657503
     2  O   -0.616122   0.342497
     3  O   -0.616122   0.342497
     4  O   -0.383878   0.657503
 Sum of Mulliken charges =  -2.00000   2.00000

 Dipole moment (field-independent basis, Debye):
    X=             -0.0000    Y=              0.0000    Z=              0.0000  Tot=              0.0000
 Quadrupole moment (field-independent basis, Debye-Ang):
   XX=            -24.9974   YY=            -24.9974   ZZ=            -88.2950
   XY=              0.0000   XZ=              0.0000   YZ=              0.0000

 Normal termination of Gaussian 16 at Sat Dec 31 22:03:49 2022.
