 Gaussian 16, Revision A.03,
 Gaussian 16:  ES64L-G16RevA.03 25-Dec-2016

 -------------------------------------
 #p CCSD(T)/cc-pVTZ Guess=Read SCF=XQC
 -------------------------------------

 ---------
 O2_O2_252
 ---------
 Symbolic Z-matrix:
 Charge = -2 Multiplicity = 3

                         Standard orientation:
 ---------------------------------------------------------------------
 Center     Atomic      Atomic             Coordinates (Angstroms)
 Number     Number       Type             X           Y           Z
 ---------------------------------------------------------------------
      1          8           0        0.000000    0.000000    2.576557
      2          8           0        0.000000    0.000000    3.928937
      3          8           0        0.000000    0.000000   -3.928937
      4          8           0        0.000000    0.000000   -2.576557
 ---------------------------------------------------------------------

 SCF Done:  E(UHF) =  -298.961841927     A.U. after   11 cycles
 E2 =    -0.1255665503D+01 EUMP2 =    -0.30021750743079D+03
 CCSD(T)
 CCSD(T)= -0.30013751455D+03

 The electronic state is 3-SGG.
 Alpha  occ. eigenvalues --  -20.23054 -20.23054 -20.21262 -20.21262  -1.07985
 Alpha  occ. eigenvalues --   -1.07985  -0.71618  -0.71617  -0.26516  -0.26516
 Alpha  occ. eigenvalues --   -0.26515  -0.26515  -0.20930  -0.20919  -0.05623
 Alpha  occ. eigenvalues --   -0.05623  -0.05621  -0.05621
 Alpha virt. eigenvalues --    0.70967   0.71284   1.11198   1.11672   1.12238
 Alpha virt. eigenvalues --    1.12238   1.12248   1.12248   1.16175   1.16629
 Alpha virt. eigenvalues --    1.20831   1.20831   1.20859   1.20859   1.34335

  Beta  occ. eigenvalues --  -20.19671 -20.19670 -20.18565 -20.18564  -0.99904
  Beta  occ. eigenvalues --   -0.99897  -0.60306  -0.60239  -0.18412  -0.18390
  Beta  occ. eigenvalues --   -0.12051  -0.12051  -0.11849  -0.11849   0.23454
  Beta  occ. eigenvalues --    0.23454
  Beta virt. eigenvalues --    0.31969   0.31969   0.74124   0.74496   1.13077
  Beta virt. eigenvalues --    1.13461   1.17036   1.17152   1.17152   1.17161
  Beta virt. eigenvalues --    1.17161   1.17569   1.26155   1.26155   1.26186

 Mulliken charges and spin densities:
               1          2
     1  O   -0.443761   0.573467
     2  O   -0.556239   0.426533
     3  O   -0.556239   0.426533
     4  O   -0.443761   0.573467
 Sum of Mulliken charges =  -2.00000   2.00000

 Dipole moment (field-independent basis, Debye):
    X=             -0.0000    Y=              0.0000    Z=             -0.0000  Tot=              0.0000
 Quadrupole moment (field-independent basis, Debye-Ang):
   XX=            -24.9444   YY=            -24.9444   ZZ=           -137.3712
   XY=              0.0000   XZ=              0.0000   YZ=              0.0000

 Normal termination of Gaussian 16 at Sun Jan  1 00:52:27 2023.
