 Gaussian 16, Revision A.03,
 Gaussian 16:  ES64L-G16RevA.03 25-Dec-2016

 -------------------------------------
 #p CCSD(T)/cc-pVTZ Guess=Read SCF=XQC
 -------------------------------------

 --------
 O2_O2_90
 --------
 Symbolic Z-matrix:
 Charge = -2 Multiplicity = 3

                         Standard orientation:
 ---------------------------------------------------------------------
 Center     Atomic      Atomic             Coordinates (Angstroms)
 Number     Number       Type             X           Y           Z
 ---------------------------------------------------------------------
      1          8           0        0.000000    0.000000    1.429712
      2          8           0        0.000000    0.000000    2.782092
      3          8           0        0.000000    0.000000   -2.782092
      4          8           0        0.000000    0.000000   -1.429712
 ---------------------------------------------------------------------

 SCF Done:  E(UHF) =  -298.956543101     A.U. after   12 cycles
 E2 =    -0.1109555859D+01 EUMP2 =    -0.30006609895995D+03
 CCSD(T)
 CCSD(T)= -0.30008243424D+03

 The electronic state is 3-SGG.
 Alpha  occ. eigenvalues --  -20.20739 -20.20739 -20.15406 -20.15406  -1.04246
 Alpha  occ. eigenvalues --   -1.04111  -0.67609  -0.66963  -0.22945  -0.22945
 Alpha  occ. eigenvalues --   -0.22649  -0.22649  -0.17578  -0.15577  -0.01470
 Alpha  occ. eigenvalues --   -0.01470  -0.01052  -0.01052
 Alpha virt. eigenvalues --    0.73270   0.79924   1.12648   1.13857   1.13857
 Alpha virt. eigenvalues --    1.15653   1.17479   1.17479   1.17935   1.22178
 Alpha virt. eigenvalues --    1.22178   1.30275   1.30275   1.37840   1.38354

  Beta  occ. eigenvalues --  -20.16666 -20.16664 -20.13284 -20.13284  -0.95822
  Beta  occ. eigenvalues --   -0.95622  -0.56568  -0.55260  -0.15171  -0.12742
  Beta  occ. eigenvalues --   -0.08420  -0.08420  -0.07412  -0.07412   0.24445
  Beta  occ. eigenvalues --    0.24445
  Beta virt. eigenvalues --    0.40217   0.40217   0.76303   0.83770   1.14488
  Beta virt. eigenvalues --    1.16755   1.18935   1.19709   1.19709   1.21832
  Beta virt. eigenvalues --    1.21832   1.26897   1.26897   1.36114   1.36114

 Mulliken charges and spin densities:
               1          2
     1  O   -0.359824   0.692240
     2  O   -0.640176   0.307760
     3  O   -0.640176   0.307760
     4  O   -0.359824   0.692240
 Sum of Mulliken charges =  -2.00000   2.00000

 Dipole moment (field-independent basis, Debye):
    X=             -0.0000    Y=              0.0000    Z=             -0.0000  Tot=              0.0000
 Quadrupole moment (field-independent basis, Debye-Ang):
   XX=            -25.0326   YY=            -25.0326   ZZ=            -81.1717
   XY=              0.0000   XZ=              0.0000   YZ=              0.0000

 74836\PMP3-0=-300.032285\MP4SDQ=-299.9933162\CCSD=-299.990042\CCSD(T)=
 Normal termination of Gaussian 16 at Sat Dec 31 21:32:08 2022.
