 Gaussian 16, Revision A.03,
 Gaussian 16:  ES64L-G16RevA.03 25-Dec-2016

 -------------------------------------
 #p CCSD(T)/cc-pVTZ Guess=Read SCF=XQC
 -------------------------------------

 ---------
 O2_O2_224
 ---------
 Symbolic Z-matrix:
 Charge = -2 Multiplicity = 3

                         Standard orientation:
 ---------------------------------------------------------------------
 Center     Atomic      Atomic             Coordinates (Angstroms)
 Number     Number       Type             X           Y           Z
 ---------------------------------------------------------------------
      1          8           0        0.000000    0.000000    2.378337
      2          8           0        0.000000    0.000000    3.730717
      3          8           0        0.000000    0.000000   -3.730717
      4          8           0        0.000000    0.000000   -2.378337
 ---------------------------------------------------------------------

 SCF Done:  E(UHF) =  -298.959527107     A.U. after   11 cycles
 E2 =    -0.1233780270D+01 EUMP2 =    -0.30019330737795D+03
 CCSD(T)
 CCSD(T)= -0.30013067815D+03

 The electronic state is 3-SGG.
 Alpha  occ. eigenvalues --  -20.22638 -20.22638 -20.20598 -20.20598  -1.07461
 Alpha  occ. eigenvalues --   -1.07461  -0.71070  -0.71065  -0.25997  -0.25997
 Alpha  occ. eigenvalues --   -0.25994  -0.25994  -0.20391  -0.20355  -0.05076
 Alpha  occ. eigenvalues --   -0.05076  -0.05071  -0.05071
 Alpha virt. eigenvalues --    0.71251   0.72147   1.11265   1.12597   1.12744
 Alpha virt. eigenvalues --    1.12744   1.12783   1.12783   1.16366   1.17886
 Alpha virt. eigenvalues --    1.21330   1.21330   1.21440   1.21440   1.34851

  Beta  occ. eigenvalues --  -20.19209 -20.19209 -20.17947 -20.17947  -0.99374
  Beta  occ. eigenvalues --   -0.99363  -0.59773  -0.59683  -0.17873  -0.17819
  Beta  occ. eigenvalues --   -0.11553  -0.11553  -0.11306  -0.11306   0.23688
  Beta  occ. eigenvalues --    0.23688
  Beta virt. eigenvalues --    0.32834   0.32834   0.74361   0.75411   1.13213
  Beta virt. eigenvalues --    1.14249   1.17180   1.17654   1.17654   1.17685
  Beta virt. eigenvalues --    1.17685   1.18925   1.26659   1.26659   1.26775

 Mulliken charges and spin densities:
               1          2
     1  O   -0.436208   0.583384
     2  O   -0.563792   0.416616
     3  O   -0.563792   0.416616
     4  O   -0.436208   0.583384
 Sum of Mulliken charges =  -2.00000   2.00000

 Dipole moment (field-independent basis, Debye):
    X=             -0.0000    Y=              0.0000    Z=             -0.0000  Tot=              0.0000
 Quadrupole moment (field-independent basis, Debye-Ang):
   XX=            -24.9472   YY=            -24.9472   ZZ=           -125.7019
   XY=              0.0000   XZ=              0.0000   YZ=              0.0000

 Normal termination of Gaussian 16 at Sun Jan  1 00:18:07 2023.
