 Gaussian 16, Revision A.03,
 Gaussian 16:  ES64L-G16RevA.03 25-Dec-2016

 -------------------------------------
 #p CCSD(T)/cc-pVTZ Guess=Read SCF=XQC
 -------------------------------------

 ---------
 O2_O2_287
 ---------
 Symbolic Z-matrix:
 Charge = -2 Multiplicity = 3

                         Standard orientation:
 ---------------------------------------------------------------------
 Center     Atomic      Atomic             Coordinates (Angstroms)
 Number     Number       Type             X           Y           Z
 ---------------------------------------------------------------------
      1          8           0        0.000000    0.000000    2.824332
      2          8           0        0.000000    0.000000    4.176712
      3          8           0        0.000000    0.000000   -4.176712
      4          8           0        0.000000    0.000000   -2.824332
 ---------------------------------------------------------------------

 SCF Done:  E(UHF) =  -298.964510226     A.U. after   10 cycles
 E2 =    -0.1282516701D+01 EUMP2 =    -0.30024702692697D+03
 CCSD(T)
 CCSD(T)= -0.30014498738D+03

 The electronic state is 3-SGG.
 Alpha  occ. eigenvalues --  -20.23522 -20.23522 -20.21978 -20.21978  -1.08562
 Alpha  occ. eigenvalues --   -1.08562  -0.72218  -0.72218  -0.27090  -0.27090
 Alpha  occ. eigenvalues --   -0.27090  -0.27090  -0.21528  -0.21526  -0.06222
 Alpha  occ. eigenvalues --   -0.06222  -0.06221  -0.06221
 Alpha virt. eigenvalues --    0.70460   0.70527   1.10765   1.10866   1.11670
 Alpha virt. eigenvalues --    1.11670   1.11671   1.11671   1.15678   1.15760
 Alpha virt. eigenvalues --    1.20252   1.20252   1.20256   1.20256   1.33769

  Beta  occ. eigenvalues --  -20.20185 -20.20185 -20.19233 -20.19233  -1.00486
  Beta  occ. eigenvalues --   -1.00481  -0.60893  -0.60842  -0.19010  -0.19002
  Beta  occ. eigenvalues --   -0.12603  -0.12603  -0.12442  -0.12442   0.23188
  Beta  occ. eigenvalues --    0.23188
  Beta virt. eigenvalues --    0.31038   0.31038   0.73634   0.73714   1.12630
  Beta virt. eigenvalues --    1.12722   1.16552   1.16591   1.16591   1.16593
  Beta virt. eigenvalues --    1.16593   1.16653   1.25572   1.25572   1.25577

 Mulliken charges and spin densities:
               1          2
     1  O   -0.451456   0.563469
     2  O   -0.548544   0.436531
     3  O   -0.548544   0.436531
     4  O   -0.451456   0.563469
 Sum of Mulliken charges =  -2.00000   2.00000

 Dipole moment (field-independent basis, Debye):
    X=             -0.0000    Y=             -0.0000    Z=              0.0000  Tot=              0.0000
 Quadrupole moment (field-independent basis, Debye-Ang):
   XX=            -24.9422   YY=            -24.9422   ZZ=           -153.0716
   XY=              0.0000   XZ=              0.0000   YZ=              0.0000

 Normal termination of Gaussian 16 at Sun Jan  1 01:35:04 2023.
