 Gaussian 16, Revision A.03,
 Gaussian 16:  ES64L-G16RevA.03 25-Dec-2016

 -------------------------------------
 #p CCSD(T)/cc-pVTZ Guess=Read SCF=XQC
 -------------------------------------

 ---------
 O2_O2_246
 ---------
 Symbolic Z-matrix:
 Charge = -2 Multiplicity = 3

                         Standard orientation:
 ---------------------------------------------------------------------
 Center     Atomic      Atomic             Coordinates (Angstroms)
 Number     Number       Type             X           Y           Z
 ---------------------------------------------------------------------
      1          8           0        0.000000    0.000000    2.534081
      2          8           0        0.000000    0.000000    3.886461
      3          8           0        0.000000    0.000000   -3.886461
      4          8           0        0.000000    0.000000   -2.534081
 ---------------------------------------------------------------------

 SCF Done:  E(UHF) =  -298.961357003     A.U. after   11 cycles
 E2 =    -0.1251014392D+01 EUMP2 =    -0.30021237139516D+03
 CCSD(T)
 CCSD(T)= -0.30013611904D+03

 The electronic state is 3-SGG.
 Alpha  occ. eigenvalues --  -20.22968 -20.22968 -20.21127 -20.21127  -1.07878
 Alpha  occ. eigenvalues --   -1.07878  -0.71506  -0.71504  -0.26409  -0.26409
 Alpha  occ. eigenvalues --   -0.26409  -0.26409  -0.20820  -0.20805  -0.05511
 Alpha  occ. eigenvalues --   -0.05511  -0.05509  -0.05509
 Alpha virt. eigenvalues --    0.71043   0.71444   1.11246   1.11846   1.12343
 Alpha virt. eigenvalues --    1.12343   1.12356   1.12356   1.16239   1.16835
 Alpha virt. eigenvalues --    1.20936   1.20936   1.20975   1.20975   1.34441

  Beta  occ. eigenvalues --  -20.19576 -20.19575 -20.18439 -20.18439  -0.99796
  Beta  occ. eigenvalues --   -0.99788  -0.60197  -0.60125  -0.18301  -0.18274
  Beta  occ. eigenvalues --   -0.11949  -0.11949  -0.11738  -0.11738   0.23503
  Beta  occ. eigenvalues --    0.23503
  Beta virt. eigenvalues --    0.32144   0.32144   0.74193   0.74664   1.13133
  Beta virt. eigenvalues --    1.13615   1.17093   1.17256   1.17256   1.17268
  Beta virt. eigenvalues --    1.17268   1.17789   1.26262   1.26262   1.26303

 Mulliken charges and spin densities:
               1          2
     1  O   -0.442260   0.575426
     2  O   -0.557740   0.424574
     3  O   -0.557740   0.424574
     4  O   -0.442260   0.575426
 Sum of Mulliken charges =  -2.00000   2.00000

 Dipole moment (field-independent basis, Debye):
    X=             -0.0000    Y=             -0.0000    Z=             -0.0000  Tot=              0.0000
 Quadrupole moment (field-independent basis, Debye-Ang):
   XX=            -24.9449   YY=            -24.9449   ZZ=           -134.8037
   XY=              0.0000   XZ=              0.0000   YZ=              0.0000

 Normal termination of Gaussian 16 at Sun Jan  1 00:45:02 2023.
