 Gaussian 16, Revision A.03,
 Gaussian 16:  ES64L-G16RevA.03 25-Dec-2016

 -------------------------------------
 #p CCSD(T)/cc-pVTZ Guess=Read SCF=XQC
 -------------------------------------

 --------
 O2_O2_52
 --------
 Symbolic Z-matrix:
 Charge = -2 Multiplicity = 3

                         Standard orientation:
 ---------------------------------------------------------------------
 Center     Atomic      Atomic             Coordinates (Angstroms)
 Number     Number       Type             X           Y           Z
 ---------------------------------------------------------------------
      1          8           0        0.000000    0.000000    1.160699
      2          8           0        0.000000    0.000000    2.513079
      3          8           0        0.000000    0.000000   -2.513079
      4          8           0        0.000000    0.000000   -1.160699
 ---------------------------------------------------------------------

 SCF Done:  E(UHF) =  -298.964991654     A.U. after   12 cycles
 E2 =    -0.1063676606D+01 EUMP2 =    -0.30002866825929D+03
 CCSD(T)
 CCSD(T)= -0.30006156385D+03

 The electronic state is 3-SGG.
 Alpha  occ. eigenvalues --  -20.20408 -20.20408 -20.12711 -20.12711  -1.03381
 Alpha  occ. eigenvalues --   -1.02734  -0.66847  -0.64504  -0.22304  -0.22304
 Alpha  occ. eigenvalues --   -0.21234  -0.21234  -0.17686  -0.12144  -0.00024
 Alpha  occ. eigenvalues --   -0.00024   0.01064   0.01064
 Alpha virt. eigenvalues --    0.76132   0.82766   1.13649   1.13649   1.16045
 Alpha virt. eigenvalues --    1.18091   1.19546   1.19546   1.23326   1.23326
 Alpha virt. eigenvalues --    1.29326   1.36165   1.36165   1.38567   1.39710

  Beta  occ. eigenvalues --  -20.15873 -20.15868 -20.10938 -20.10938  -0.94519
  Beta  occ. eigenvalues --   -0.93862  -0.56397  -0.52456  -0.15378  -0.08988
  Beta  occ. eigenvalues --   -0.07423  -0.07423  -0.05608  -0.05608   0.23724
  Beta  occ. eigenvalues --    0.23724
  Beta virt. eigenvalues --    0.44770   0.44770   0.79729   0.86680   1.17236
  Beta virt. eigenvalues --    1.18492   1.20507   1.20507   1.23448   1.23448
  Beta virt. eigenvalues --    1.27500   1.27500   1.31435   1.38912   1.40181

 Mulliken charges and spin densities:
               1          2
     1  O   -0.307369   0.761330
     2  O   -0.692631   0.238670
     3  O   -0.692631   0.238670
     4  O   -0.307369   0.761330
 Sum of Mulliken charges =  -2.00000   2.00000

 Dipole moment (field-independent basis, Debye):
    X=             -0.0000    Y=              0.0000    Z=             -0.0000  Tot=              0.0000
 Quadrupole moment (field-independent basis, Debye-Ang):
   XX=            -25.0999   YY=            -25.0999   ZZ=            -72.2057
   XY=              0.0000   XZ=              0.0000   YZ=              0.0000

 Normal termination of Gaussian 16 at Sat Dec 31 20:46:42 2022.
