 Gaussian 16, Revision A.03,
 Gaussian 16:  ES64L-G16RevA.03 25-Dec-2016

 -------------------------------------
 #p CCSD(T)/cc-pVTZ Guess=Read SCF=XQC
 -------------------------------------

 --------
 O2_O2_61
 --------
 Symbolic Z-matrix:
 Charge = -2 Multiplicity = 3

                         Standard orientation:
 ---------------------------------------------------------------------
 Center     Atomic      Atomic             Coordinates (Angstroms)
 Number     Number       Type             X           Y           Z
 ---------------------------------------------------------------------
      1          8           0        0.000000    0.000000    1.224412
      2          8           0        0.000000    0.000000    2.576792
      3          8           0        0.000000    0.000000   -2.576792
      4          8           0        0.000000    0.000000   -1.224412
 ---------------------------------------------------------------------

 SCF Done:  E(UHF) =  -298.962847704     A.U. after   12 cycles
 E2 =    -0.1074662820D+01 EUMP2 =    -0.30003751052374D+03
 CCSD(T)
 CCSD(T)= -0.30006719497D+03

 The electronic state is 3-SGG.
 Alpha  occ. eigenvalues --  -20.20505 -20.20504 -20.13437 -20.13437  -1.03556
 Alpha  occ. eigenvalues --   -1.03112  -0.66951  -0.65225  -0.22413  -0.22413
 Alpha  occ. eigenvalues --   -0.21626  -0.21626  -0.17533  -0.13189  -0.00396
 Alpha  occ. eigenvalues --   -0.00396   0.00474   0.00474
 Alpha virt. eigenvalues --    0.75502   0.82009   1.13512   1.13512   1.15887
 Alpha virt. eigenvalues --    1.17861   1.19034   1.19034   1.22901   1.22901
 Alpha virt. eigenvalues --    1.24798   1.34750   1.34750   1.38421   1.39340

  Beta  occ. eigenvalues --  -20.16088 -20.16084 -20.11570 -20.11570  -0.94827
  Beta  occ. eigenvalues --   -0.94337  -0.56283  -0.53271  -0.15210  -0.10128
  Beta  occ. eigenvalues --   -0.07650  -0.07650  -0.06086  -0.06086   0.24001
  Beta  occ. eigenvalues --    0.24001
  Beta virt. eigenvalues --    0.43501   0.43501   0.78971   0.85912   1.17039
  Beta virt. eigenvalues --    1.18287   1.20144   1.20144   1.23051   1.23051
  Beta virt. eigenvalues --    1.26953   1.27163   1.27163   1.38786   1.39860

 Mulliken charges and spin densities:
               1          2
     1  O   -0.322330   0.743129
     2  O   -0.677670   0.256871
     3  O   -0.677670   0.256871
     4  O   -0.322330   0.743129
 Sum of Mulliken charges =  -2.00000   2.00000

 Dipole moment (field-independent basis, Debye):
    X=             -0.0000    Y=              0.0000    Z=              0.0000  Tot=              0.0000
 Quadrupole moment (field-independent basis, Debye-Ang):
   XX=            -25.0841   YY=            -25.0841   ZZ=            -74.1548
   XY=              0.0000   XZ=              0.0000   YZ=              0.0000

 Normal termination of Gaussian 16 at Sat Dec 31 20:57:35 2022.
