 Gaussian 16, Revision A.03,
 Gaussian 16:  ES64L-G16RevA.03 25-Dec-2016

 -------------------------------------
 #p CCSD(T)/cc-pVTZ Guess=Read SCF=XQC
 -------------------------------------

 ---------
 O2_O2_185
 ---------
 Symbolic Z-matrix:
 Charge = -2 Multiplicity = 3

                         Standard orientation:
 ---------------------------------------------------------------------
 Center     Atomic      Atomic             Coordinates (Angstroms)
 Number     Number       Type             X           Y           Z
 ---------------------------------------------------------------------
      1          8           0        0.000000    0.000000    2.102244
      2          8           0        0.000000    0.000000    3.454625
      3          8           0        0.000000    0.000000   -3.454625
      4          8           0        0.000000    0.000000   -2.102244
 ---------------------------------------------------------------------

 SCF Done:  E(UHF) =  -298.956295411     A.U. after   11 cycles
 E2 =    -0.1202112233D+01 EUMP2 =    -0.30015840764393D+03
 CCSD(T)
 CCSD(T)= -0.30011960398D+03

 The electronic state is 3-SGG.
 Alpha  occ. eigenvalues --  -20.22013 -20.22013 -20.19498 -20.19498  -1.06631
 Alpha  occ. eigenvalues --   -1.06628  -0.70193  -0.70169  -0.25178  -0.25178
 Alpha  occ. eigenvalues --   -0.25167  -0.25167  -0.19553  -0.19414  -0.04200
 Alpha  occ. eigenvalues --   -0.04200  -0.04178  -0.04178
 Alpha virt. eigenvalues --    0.71177   0.73949   1.10026   1.13494   1.13494
 Alpha virt. eigenvalues --    1.13697   1.13697   1.14087   1.16224   1.21976
 Alpha virt. eigenvalues --    1.21976   1.22298   1.22545   1.22545   1.35663

  Beta  occ. eigenvalues --  -20.18495 -20.18494 -20.16935 -20.16934  -0.98523
  Beta  occ. eigenvalues --   -0.98503  -0.58925  -0.58770  -0.17041  -0.16856
  Beta  occ. eigenvalues --   -0.10767  -0.10767  -0.10426  -0.10426   0.24032
  Beta  occ. eigenvalues --    0.24032
  Beta virt. eigenvalues --    0.34282   0.34282   0.74120   0.77368   1.12173
  Beta virt. eigenvalues --    1.15422   1.16951   1.18413   1.18413   1.18564
  Beta virt. eigenvalues --    1.18564   1.23543   1.27307   1.27307   1.27909

 Mulliken charges and spin densities:
               1          2
     1  O   -0.422797   0.601567
     2  O   -0.577203   0.398433
     3  O   -0.577203   0.398433
     4  O   -0.422797   0.601567
 Sum of Mulliken charges =  -2.00000   2.00000

 Dipole moment (field-independent basis, Debye):
    X=             -0.0000    Y=              0.0000    Z=             -0.0000  Tot=              0.0000
 Quadrupole moment (field-independent basis, Debye-Ang):
   XX=            -24.9546   YY=            -24.9546   ZZ=           -110.7801
   XY=              0.0000   XZ=              0.0000   YZ=              0.0000

 Normal termination of Gaussian 16 at Sat Dec 31 23:29:39 2022.
