 Gaussian 16, Revision A.03,
 Gaussian 16:  ES64L-G16RevA.03 25-Dec-2016

 -------------------------------------
 #p CCSD(T)/cc-pVTZ Guess=Read SCF=XQC
 -------------------------------------

 ---------
 O2_O2_238
 ---------
 Symbolic Z-matrix:
 Charge = -2 Multiplicity = 3

                         Standard orientation:
 ---------------------------------------------------------------------
 Center     Atomic      Atomic             Coordinates (Angstroms)
 Number     Number       Type             X           Y           Z
 ---------------------------------------------------------------------
      1          8           0        0.000000    0.000000    2.477447
      2          8           0        0.000000    0.000000    3.829827
      3          8           0        0.000000    0.000000   -3.829827
      4          8           0        0.000000    0.000000   -2.477447
 ---------------------------------------------------------------------

 SCF Done:  E(UHF) =  -298.960699835     A.U. after   11 cycles
 E2 =    -0.1244783385D+01 EUMP2 =    -0.30020548322032D+03
 CCSD(T)
 CCSD(T)= -0.30013420096D+03

 The electronic state is 3-SGG.
 Alpha  occ. eigenvalues --  -20.22850 -20.22850 -20.20941 -20.20941  -1.07730
 Alpha  occ. eigenvalues --   -1.07730  -0.71352  -0.71349  -0.26263  -0.26263
 Alpha  occ. eigenvalues --   -0.26262  -0.26262  -0.20668  -0.20647  -0.05357
 Alpha  occ. eigenvalues --   -0.05357  -0.05355  -0.05355
 Alpha virt. eigenvalues --    0.71133   0.71678   1.11286   1.12099   1.12486
 Alpha virt. eigenvalues --    1.12486   1.12505   1.12505   1.16306   1.17154
 Alpha virt. eigenvalues --    1.21078   1.21078   1.21135   1.21135   1.34585

  Beta  occ. eigenvalues --  -20.19446 -20.19445 -20.18266 -20.18266  -0.99647
  Beta  occ. eigenvalues --   -0.99638  -0.60047  -0.59970  -0.18149  -0.18115
  Beta  occ. eigenvalues --   -0.11809  -0.11809  -0.11585  -0.11585   0.23569
  Beta  occ. eigenvalues --    0.23569
  Beta virt. eigenvalues --    0.32386   0.32386   0.74271   0.74911   1.13190
  Beta virt. eigenvalues --    1.13833   1.17149   1.17397   1.17397   1.17414
  Beta virt. eigenvalues --    1.17414   1.18133   1.26405   1.26405   1.26466

 Mulliken charges and spin densities:
               1          2
     1  O   -0.440163   0.578170
     2  O   -0.559837   0.421830
     3  O   -0.559837   0.421830
     4  O   -0.440163   0.578170
 Sum of Mulliken charges =  -2.00000   2.00000

 Dipole moment (field-independent basis, Debye):
    X=             -0.0000    Y=              0.0000    Z=             -0.0000  Tot=              0.0000
 Quadrupole moment (field-independent basis, Debye-Ang):
   XX=            -24.9457   YY=            -24.9457   ZZ=           -131.4372
   XY=              0.0000   XZ=              0.0000   YZ=              0.0000

 Normal termination of Gaussian 16 at Sun Jan  1 00:35:08 2023.
