 Gaussian 16, Revision A.03,
 Gaussian 16:  ES64L-G16RevA.03 25-Dec-2016

 -------------------------------------
 #p CCSD(T)/cc-pVTZ Guess=Read SCF=XQC
 -------------------------------------

 ---------
 O2_O2_148
 ---------
 Symbolic Z-matrix:
 Charge = -2 Multiplicity = 3

                         Standard orientation:
 ---------------------------------------------------------------------
 Center     Atomic      Atomic             Coordinates (Angstroms)
 Number     Number       Type             X           Y           Z
 ---------------------------------------------------------------------
      1          8           0        0.000000    0.000000    1.840311
      2          8           0        0.000000    0.000000    3.192691
      3          8           0        0.000000    0.000000   -3.192691
      4          8           0        0.000000    0.000000   -1.840311
 ---------------------------------------------------------------------

 SCF Done:  E(UHF) =  -298.954021327     A.U. after   11 cycles
 E2 =    -0.1169639657D+01 EUMP2 =    -0.30012366098381D+03
 CCSD(T)
 CCSD(T)= -0.30010706819D+03

 The electronic state is 3-SGG.
 Alpha  occ. eigenvalues --  -20.21425 -20.21425 -20.18206 -20.18206  -1.05742
 Alpha  occ. eigenvalues --   -1.05729  -0.69239  -0.69151  -0.24314  -0.24314
 Alpha  occ. eigenvalues --   -0.24274  -0.24274  -0.18699  -0.18283  -0.03243
 Alpha  occ. eigenvalues --   -0.03243  -0.03164  -0.03164
 Alpha virt. eigenvalues --    0.70788   0.76208   1.07475   1.14101   1.14101
 Alpha virt. eigenvalues --    1.14867   1.14867   1.15090   1.16399   1.22269
 Alpha virt. eigenvalues --    1.22269   1.24318   1.24318   1.32355   1.36556

  Beta  occ. eigenvalues --  -20.17772 -20.17771 -20.15762 -20.15762  -0.97583
  Beta  occ. eigenvalues --   -0.97541  -0.58010  -0.57699  -0.16204  -0.15671
  Beta  occ. eigenvalues --   -0.09920  -0.09920  -0.09429  -0.09429   0.24333
  Beta  occ. eigenvalues --    0.24333
  Beta virt. eigenvalues --    0.36040   0.36040   0.73510   0.79833   1.09767
  Beta virt. eigenvalues --    1.16240   1.17161   1.19114   1.19114   1.19640
  Beta virt. eigenvalues --    1.19640   1.27552   1.27552   1.29769   1.29769

 Mulliken charges and spin densities:
               1          2
     1  O   -0.405264   0.626427
     2  O   -0.594736   0.373573
     3  O   -0.594736   0.373573
     4  O   -0.405264   0.626427
 Sum of Mulliken charges =  -2.00000   2.00000

 Dipole moment (field-independent basis, Debye):
    X=             -0.0000    Y=              0.0000    Z=             -0.0000  Tot=              0.0000
 Quadrupole moment (field-independent basis, Debye-Ang):
   XX=            -24.9704   YY=            -24.9704   ZZ=            -98.0845
   XY=              0.0000   XZ=              0.0000   YZ=              0.0000

 Normal termination of Gaussian 16 at Sat Dec 31 22:44:23 2022.
