 Gaussian 16, Revision A.03,
 Gaussian 16:  ES64L-G16RevA.03 25-Dec-2016

 -------------------------------------
 #p CCSD(T)/cc-pVTZ Guess=Read SCF=XQC
 -------------------------------------

 ---------
 O2_O2_171
 ---------
 Symbolic Z-matrix:
 Charge = -2 Multiplicity = 3

                         Standard orientation:
 ---------------------------------------------------------------------
 Center     Atomic      Atomic             Coordinates (Angstroms)
 Number     Number       Type             X           Y           Z
 ---------------------------------------------------------------------
      1          8           0        0.000000    0.000000    2.003135
      2          8           0        0.000000    0.000000    3.355515
      3          8           0        0.000000    0.000000   -3.355515
      4          8           0        0.000000    0.000000   -2.003135
 ---------------------------------------------------------------------

 SCF Done:  E(UHF) =  -298.955274447     A.U. after   11 cycles
 E2 =    -0.1190191252D+01 EUMP2 =    -0.30014546569823D+03
 CCSD(T)
 CCSD(T)= -0.30011511744D+03

 The electronic state is 3-SGG.
 Alpha  occ. eigenvalues --  -20.21785 -20.21785 -20.19042 -20.19042  -1.06305
 Alpha  occ. eigenvalues --   -1.06300  -0.69845  -0.69806  -0.24859  -0.24859
 Alpha  occ. eigenvalues --   -0.24841  -0.24841  -0.19233  -0.19019  -0.03853
 Alpha  occ. eigenvalues --   -0.03853  -0.03816  -0.03816
 Alpha virt. eigenvalues --    0.71005   0.74763   1.09052   1.13751   1.13751
 Alpha virt. eigenvalues --    1.14097   1.14097   1.14530   1.16213   1.22142
 Alpha virt. eigenvalues --    1.22142   1.23098   1.23098   1.25288   1.35981

  Beta  occ. eigenvalues --  -20.18224 -20.18223 -20.16519 -20.16519  -0.98184
  Beta  occ. eigenvalues --   -0.98158  -0.58590  -0.58392  -0.16726  -0.16446
  Beta  occ. eigenvalues --   -0.10458  -0.10458  -0.10070  -0.10070   0.24153
  Beta  occ. eigenvalues --    0.24153
  Beta virt. eigenvalues --    0.34893   0.34893   0.73859   0.78259   1.11264
  Beta virt. eigenvalues --    1.15774   1.16945   1.18689   1.18689   1.18939
  Beta virt. eigenvalues --    1.18939   1.26563   1.27465   1.27465   1.28484

 Mulliken charges and spin densities:
               1          2
     1  O   -0.416855   0.609885
     2  O   -0.583145   0.390115
     3  O   -0.583145   0.390115
     4  O   -0.416855   0.609885
 Sum of Mulliken charges =  -2.00000   2.00000

 Dipole moment (field-independent basis, Debye):
    X=             -0.0000    Y=             -0.0000    Z=             -0.0000  Tot=              0.0000
 Quadrupole moment (field-independent basis, Debye-Ang):
   XX=            -24.9592   YY=            -24.9592   ZZ=           -105.8062
   XY=              0.0000   XZ=              0.0000   YZ=              0.0000

 Normal termination of Gaussian 16 at Sat Dec 31 23:12:13 2022.
