 Gaussian 16, Revision A.03,
 Gaussian 16:  ES64L-G16RevA.03 25-Dec-2016

 -------------------------------------
 #p CCSD(T)/cc-pVTZ Guess=Read SCF=XQC
 -------------------------------------

 ---------
 O2_O2_216
 ---------
 Symbolic Z-matrix:
 Charge = -2 Multiplicity = 3

                         Standard orientation:
 ---------------------------------------------------------------------
 Center     Atomic      Atomic             Coordinates (Angstroms)
 Number     Number       Type             X           Y           Z
 ---------------------------------------------------------------------
      1          8           0        0.000000    0.000000    2.321703
      2          8           0        0.000000    0.000000    3.674083
      3          8           0        0.000000    0.000000   -3.674083
      4          8           0        0.000000    0.000000   -2.321703
 ---------------------------------------------------------------------

 SCF Done:  E(UHF) =  -298.958849818     A.U. after   11 cycles
 E2 =    -0.1227423627D+01 EUMP2 =    -0.30018627344570D+03
 CCSD(T)
 CCSD(T)= -0.30012856298D+03

 The electronic state is 3-SGG.
 Alpha  occ. eigenvalues --  -20.22513 -20.22513 -20.20390 -20.20390  -1.07301
 Alpha  occ. eigenvalues --   -1.07300  -0.70901  -0.70894  -0.25838  -0.25838
 Alpha  occ. eigenvalues --   -0.25835  -0.25835  -0.20227  -0.20178  -0.04907
 Alpha  occ. eigenvalues --   -0.04907  -0.04901  -0.04901
 Alpha virt. eigenvalues --    0.71290   0.72455   1.11178   1.12896   1.12896
 Alpha virt. eigenvalues --    1.12905   1.12951   1.12951   1.16364   1.18447
 Alpha virt. eigenvalues --    1.21473   1.21473   1.21631   1.21631   1.35009

  Beta  occ. eigenvalues --  -20.19069 -20.19068 -20.17755 -20.17755  -0.99210
  Beta  occ. eigenvalues --   -0.99198  -0.59609  -0.59510  -0.17710  -0.17639
  Beta  occ. eigenvalues --   -0.11401  -0.11401  -0.11138  -0.11138   0.23758
  Beta  occ. eigenvalues --    0.23758
  Beta virt. eigenvalues --    0.33105   0.33105   0.74377   0.75743   1.13161
  Beta virt. eigenvalues --    1.14498   1.17156   1.17805   1.17805   1.17849
  Beta virt. eigenvalues --    1.17849   1.19529   1.26804   1.26804   1.26970

 Mulliken charges and spin densities:
               1          2
     1  O   -0.433766   0.586631
     2  O   -0.566234   0.413369
     3  O   -0.566234   0.413369
     4  O   -0.433766   0.586631
 Sum of Mulliken charges =  -2.00000   2.00000

 Dipole moment (field-independent basis, Debye):
    X=             -0.0000    Y=              0.0000    Z=              0.0000  Tot=              0.0000
 Quadrupole moment (field-independent basis, Debye-Ang):
   XX=            -24.9483   YY=            -24.9483   ZZ=           -122.5141
   XY=              0.0000   XZ=              0.0000   YZ=              0.0000

 Normal termination of Gaussian 16 at Sun Jan  1 00:08:10 2023.
