 Gaussian 16, Revision A.03,
 Gaussian 16:  ES64L-G16RevA.03 25-Dec-2016

 -------------------------------------
 #p CCSD(T)/cc-pVTZ Guess=Read SCF=XQC
 -------------------------------------

 ---------
 O2_O2_161
 ---------
 Symbolic Z-matrix:
 Charge = -2 Multiplicity = 3

                         Standard orientation:
 ---------------------------------------------------------------------
 Center     Atomic      Atomic             Coordinates (Angstroms)
 Number     Number       Type             X           Y           Z
 ---------------------------------------------------------------------
      1          8           0        0.000000    0.000000    1.932342
      2          8           0        0.000000    0.000000    3.284722
      3          8           0        0.000000    0.000000   -3.284722
      4          8           0        0.000000    0.000000   -1.932342
 ---------------------------------------------------------------------

 SCF Done:  E(UHF) =  -298.954648034     A.U. after   11 cycles
 E2 =    -0.1181423079D+01 EUMP2 =    -0.30013607111348D+03
 CCSD(T)
 CCSD(T)= -0.30011172682D+03

 The electronic state is 3-SGG.
 Alpha  occ. eigenvalues --  -20.21625 -20.21625 -20.18693 -20.18693  -1.06064
 Alpha  occ. eigenvalues --   -1.06057  -0.69587  -0.69531  -0.24625  -0.24625
 Alpha  occ. eigenvalues --   -0.24599  -0.24599  -0.19001  -0.18713  -0.03594
 Alpha  occ. eigenvalues --   -0.03594  -0.03542  -0.03542
 Alpha virt. eigenvalues --    0.70878   0.75380   1.08300   1.13918   1.13918
 Alpha virt. eigenvalues --    1.14413   1.14413   1.14799   1.16261   1.22222
 Alpha virt. eigenvalues --    1.22222   1.23572   1.23572   1.28018   1.36219

  Beta  occ. eigenvalues --  -20.18028 -20.18027 -20.16202 -20.16202  -0.97929
  Beta  occ. eigenvalues --   -0.97897  -0.58342  -0.58103  -0.16498  -0.16126
  Beta  occ. eigenvalues --   -0.10229  -0.10229  -0.09800  -0.09800   0.24235
  Beta  occ. eigenvalues --    0.24235
  Beta virt. eigenvalues --    0.35367   0.35367   0.73669   0.78933   1.10551
  Beta virt. eigenvalues --    1.15994   1.17006   1.18880   1.18880   1.19230
  Beta virt. eigenvalues --    1.19230   1.27534   1.27534   1.28982   1.28982

 Mulliken charges and spin densities:
               1          2
     1  O   -0.412128   0.616590
     2  O   -0.587872   0.383410
     3  O   -0.587872   0.383410
     4  O   -0.412128   0.616590
 Sum of Mulliken charges =  -2.00000   2.00000

 Dipole moment (field-independent basis, Debye):
    X=             -0.0000    Y=              0.0000    Z=              0.0000  Tot=              0.0000
 Quadrupole moment (field-independent basis, Debye-Ang):
   XX=            -24.9634   YY=            -24.9634   ZZ=           -102.3795
   XY=              0.0000   XZ=              0.0000   YZ=              0.0000

 Normal termination of Gaussian 16 at Sat Dec 31 23:00:13 2022.
