 Gaussian 16, Revision A.03,
 Gaussian 16:  ES64L-G16RevA.03 25-Dec-2016

 -------------------------------------
 #p CCSD(T)/cc-pVTZ Guess=Read SCF=XQC
 -------------------------------------

 ---------
 O2_O2_147
 ---------
 Symbolic Z-matrix:
 Charge = -2 Multiplicity = 3

                         Standard orientation:
 ---------------------------------------------------------------------
 Center     Atomic      Atomic             Coordinates (Angstroms)
 Number     Number       Type             X           Y           Z
 ---------------------------------------------------------------------
      1          8           0        0.000000    0.000000    1.833232
      2          8           0        0.000000    0.000000    3.185612
      3          8           0        0.000000    0.000000   -3.185612
      4          8           0        0.000000    0.000000   -1.833232
 ---------------------------------------------------------------------

 SCF Done:  E(UHF) =  -298.953984060     A.U. after   11 cycles
 E2 =    -0.1168712921D+01 EUMP2 =    -0.30012269698077D+03
 CCSD(T)
 CCSD(T)= -0.30010669756D+03

 The electronic state is 3-SGG.
 Alpha  occ. eigenvalues --  -20.21410 -20.21410 -20.18167 -20.18167  -1.05717
 Alpha  occ. eigenvalues --   -1.05703  -0.69212  -0.69120  -0.24290  -0.24290
 Alpha  occ. eigenvalues --   -0.24248  -0.24248  -0.18676  -0.18248  -0.03216
 Alpha  occ. eigenvalues --   -0.03216  -0.03134  -0.03134
 Alpha virt. eigenvalues --    0.70788   0.76272   1.07426   1.14112   1.14112
 Alpha virt. eigenvalues --    1.14904   1.14904   1.15110   1.16413   1.22269
 Alpha virt. eigenvalues --    1.22269   1.24383   1.24383   1.32724   1.36586

  Beta  occ. eigenvalues --  -20.17753 -20.17751 -20.15727 -20.15727  -0.97556
  Beta  occ. eigenvalues --   -0.97512  -0.57984  -0.57666  -0.16181  -0.15634
  Beta  occ. eigenvalues --   -0.09895  -0.09895  -0.09400  -0.09400   0.24340
  Beta  occ. eigenvalues --    0.24340
  Beta virt. eigenvalues --    0.36095   0.36095   0.73505   0.79902   1.09721
  Beta virt. eigenvalues --    1.16257   1.17176   1.19131   1.19131   1.19673
  Beta virt. eigenvalues --    1.19673   1.27549   1.27549   1.29837   1.29837

 Mulliken charges and spin densities:
               1          2
     1  O   -0.404699   0.627242
     2  O   -0.595301   0.372758
     3  O   -0.595301   0.372758
     4  O   -0.404699   0.627242
 Sum of Mulliken charges =  -2.00000   2.00000

 Dipole moment (field-independent basis, Debye):
    X=             -0.0000    Y=             -0.0000    Z=             -0.0000  Tot=              0.0000
 Quadrupole moment (field-independent basis, Debye-Ang):
   XX=            -24.9710   YY=            -24.9710   ZZ=            -97.7617
   XY=              0.0000   XZ=              0.0000   YZ=              0.0000

 Normal termination of Gaussian 16 at Sat Dec 31 22:43:11 2022.
