 Gaussian 16, Revision A.03,
 Gaussian 16:  ES64L-G16RevA.03 25-Dec-2016

 -------------------------------------
 #p CCSD(T)/cc-pVTZ Guess=Read SCF=XQC
 -------------------------------------

 ---------
 O2_O2_107
 ---------
 Symbolic Z-matrix:
 Charge = -2 Multiplicity = 3

                         Standard orientation:
 ---------------------------------------------------------------------
 Center     Atomic      Atomic             Coordinates (Angstroms)
 Number     Number       Type             X           Y           Z
 ---------------------------------------------------------------------
      1          8           0        0.000000    0.000000    1.550060
      2          8           0        0.000000    0.000000    2.902440
      3          8           0        0.000000    0.000000   -2.902440
      4          8           0        0.000000    0.000000   -1.550060
 ---------------------------------------------------------------------

 SCF Done:  E(UHF) =  -298.954534608     A.U. after   11 cycles
 E2 =    -0.1128631084D+01 EUMP2 =    -0.30008316569181D+03
 CCSD(T)
 CCSD(T)= -0.30009033238D+03

 The electronic state is 3-SGG.
 Alpha  occ. eigenvalues --  -20.20896 -20.20896 -20.16357 -20.16357  -1.04684
 Alpha  occ. eigenvalues --   -1.04616  -0.68083  -0.67722  -0.23327  -0.23327
 Alpha  occ. eigenvalues --   -0.23161  -0.23161  -0.17828  -0.16558  -0.02031
 Alpha  occ. eigenvalues --   -0.02031  -0.01765  -0.01765
 Alpha virt. eigenvalues --    0.72046   0.78827   1.09071   1.14143   1.14143
 Alpha virt. eigenvalues --    1.15593   1.16629   1.16629   1.17319   1.22123
 Alpha virt. eigenvalues --    1.22123   1.28025   1.28025   1.37446   1.37814

  Beta  occ. eigenvalues --  -20.16982 -20.16981 -20.14117 -20.14117  -0.96375
  Beta  occ. eigenvalues --   -0.96253  -0.56949  -0.56122  -0.15383  -0.13813
  Beta  occ. eigenvalues --   -0.08875  -0.08875  -0.08076  -0.08076   0.24500
  Beta  occ. eigenvalues --    0.24500
  Beta virt. eigenvalues --    0.38735   0.38735   0.74869   0.82628   1.11239
  Beta virt. eigenvalues --    1.16689   1.18139   1.19617   1.19617   1.21145
  Beta virt. eigenvalues --    1.21145   1.27100   1.27100   1.33719   1.33719

 Mulliken charges and spin densities:
               1          2
     1  O   -0.376370   0.668429
     2  O   -0.623630   0.331571
     3  O   -0.623630   0.331571
     4  O   -0.376370   0.668429
 Sum of Mulliken charges =  -2.00000   2.00000

 Dipole moment (field-independent basis, Debye):
    X=             -0.0000    Y=              0.0000    Z=             -0.0000  Tot=              0.0000
 Quadrupole moment (field-independent basis, Debye-Ang):
   XX=            -25.0081   YY=            -25.0081   ZZ=            -85.7442
   XY=              0.0000   XZ=              0.0000   YZ=              0.0000

 Normal termination of Gaussian 16 at Sat Dec 31 21:52:49 2022.
