 Gaussian 16, Revision A.03,
 Gaussian 16:  ES64L-G16RevA.03 25-Dec-2016

 -------------------------------------
 #p CCSD(T)/cc-pVTZ Guess=Read SCF=XQC
 -------------------------------------

 ---------
 O2_O2_127
 ---------
 Symbolic Z-matrix:
 Charge = -2 Multiplicity = 3

                         Standard orientation:
 ---------------------------------------------------------------------
 Center     Atomic      Atomic             Coordinates (Angstroms)
 Number     Number       Type             X           Y           Z
 ---------------------------------------------------------------------
      1          8           0        0.000000    0.000000    1.691645
      2          8           0        0.000000    0.000000    3.044026
      3          8           0        0.000000    0.000000   -3.044026
      4          8           0        0.000000    0.000000   -1.691645
 ---------------------------------------------------------------------

 SCF Done:  E(UHF) =  -298.953679815     A.U. after   11 cycles
 E2 =    -0.1149461413D+01 EUMP2 =    -0.30010314122731D+03
 CCSD(T)
 CCSD(T)= -0.30009889726D+03

 The electronic state is 3-SGG.
 Alpha  occ. eigenvalues --  -20.21130 -20.21130 -20.17326 -20.17326  -1.05205
 Alpha  occ. eigenvalues --   -1.05175  -0.68654  -0.68472  -0.23805  -0.23805
 Alpha  occ. eigenvalues --   -0.23721  -0.23721  -0.18226  -0.17484  -0.02644
 Alpha  occ. eigenvalues --   -0.02644  -0.02493  -0.02493
 Alpha virt. eigenvalues --    0.71079   0.77556   1.07224   1.14252   1.14252
 Alpha virt. eigenvalues --    1.15426   1.15710   1.15710   1.16787   1.22215
 Alpha virt. eigenvalues --    1.22215   1.25923   1.25923   1.36931   1.37212

  Beta  occ. eigenvalues --  -20.17362 -20.17361 -20.14975 -20.14975  -0.96987
  Beta  occ. eigenvalues --   -0.96916  -0.57461  -0.56960  -0.15750  -0.14817
  Beta  occ. eigenvalues --   -0.09397  -0.09397  -0.08774  -0.08774   0.24456
  Beta  occ. eigenvalues --    0.24456
  Beta virt. eigenvalues --    0.37293   0.37293   0.73777   0.81283   1.09520
  Beta virt. eigenvalues --    1.16534   1.17571   1.19428   1.19428   1.20375
  Beta virt. eigenvalues --    1.20375   1.27394   1.27394   1.31476   1.31476

 Mulliken charges and spin densities:
               1          2
     1  O   -0.392072   0.645556
     2  O   -0.607928   0.354444
     3  O   -0.607928   0.354444
     4  O   -0.392072   0.645556
 Sum of Mulliken charges =  -2.00000   2.00000

 Dipole moment (field-independent basis, Debye):
    X=             -0.0000    Y=             -0.0000    Z=              0.0000  Tot=              0.0000
 Quadrupole moment (field-independent basis, Debye-Ang):
   XX=            -24.9863   YY=            -24.9863   ZZ=            -91.5337
   XY=              0.0000   XZ=              0.0000   YZ=              0.0000

 Normal termination of Gaussian 16 at Sat Dec 31 22:17:25 2022.
