 Gaussian 16, Revision A.03,
 Gaussian 16:  ES64L-G16RevA.03 25-Dec-2016

 -------------------------------------
 #p CCSD(T)/cc-pVTZ Guess=Read SCF=XQC
 -------------------------------------

 ---------
 O2_O2_191
 ---------
 Symbolic Z-matrix:
 Charge = -2 Multiplicity = 3

                         Standard orientation:
 ---------------------------------------------------------------------
 Center     Atomic      Atomic             Coordinates (Angstroms)
 Number     Number       Type             X           Y           Z
 ---------------------------------------------------------------------
      1          8           0        0.000000    0.000000    2.144720
      2          8           0        0.000000    0.000000    3.497100
      3          8           0        0.000000    0.000000   -3.497100
      4          8           0        0.000000    0.000000   -2.144720
 ---------------------------------------------------------------------

 SCF Done:  E(UHF) =  -298.956768488     A.U. after   11 cycles
 E2 =    -0.1207114231D+01 EUMP2 =    -0.30016388271901D+03
 CCSD(T)
 CCSD(T)= -0.30012143855D+03

 The electronic state is 3-SGG.
 Alpha  occ. eigenvalues --  -20.22111 -20.22111 -20.19682 -20.19682  -1.06766
 Alpha  occ. eigenvalues --   -1.06764  -0.70337  -0.70318  -0.25311  -0.25311
 Alpha  occ. eigenvalues --   -0.25303  -0.25303  -0.19687  -0.19573  -0.04344
 Alpha  occ. eigenvalues --   -0.04344  -0.04326  -0.04326
 Alpha virt. eigenvalues --    0.71232   0.73624   1.10366   1.13379   1.13379
 Alpha virt. eigenvalues --    1.13539   1.13539   1.13875   1.16250   1.21286
 Alpha virt. eigenvalues --    1.21890   1.21890   1.22340   1.22340   1.35531

  Beta  occ. eigenvalues --  -20.18609 -20.18609 -20.17104 -20.17103  -0.98663
  Beta  occ. eigenvalues --   -0.98645  -0.59063  -0.58922  -0.17174  -0.17020
  Beta  occ. eigenvalues --   -0.10895  -0.10895  -0.10572  -0.10572   0.23979
  Beta  occ. eigenvalues --    0.23979
  Beta virt. eigenvalues --    0.34037   0.34037   0.74210   0.77012   1.12482
  Beta virt. eigenvalues --    1.15257   1.16982   1.18294   1.18294   1.18415
  Beta virt. eigenvalues --    1.18415   1.22507   1.27221   1.27221   1.27697

 Mulliken charges and spin densities:
               1          2
     1  O   -0.425134   0.598336
     2  O   -0.574866   0.401664
     3  O   -0.574866   0.401664
     4  O   -0.425134   0.598336
 Sum of Mulliken charges =  -2.00000   2.00000

 Dipole moment (field-independent basis, Debye):
    X=             -0.0000    Y=              0.0000    Z=             -0.0000  Tot=              0.0000
 Quadrupole moment (field-independent basis, Debye-Ang):
   XX=            -24.9531   YY=            -24.9531   ZZ=           -112.9741
   XY=              0.0000   XZ=              0.0000   YZ=              0.0000

 Normal termination of Gaussian 16 at Sat Dec 31 23:37:16 2022.
