 Gaussian 16, Revision A.03,
 Gaussian 16:  ES64L-G16RevA.03 25-Dec-2016

 -------------------------------------
 #p CCSD(T)/cc-pVTZ Guess=Read SCF=XQC
 -------------------------------------

 ---------
 O2_O2_247
 ---------
 Symbolic Z-matrix:
 Charge = -2 Multiplicity = 3

                         Standard orientation:
 ---------------------------------------------------------------------
 Center     Atomic      Atomic             Coordinates (Angstroms)
 Number     Number       Type             X           Y           Z
 ---------------------------------------------------------------------
      1          8           0        0.000000    0.000000    2.541161
      2          8           0        0.000000    0.000000    3.893541
      3          8           0        0.000000    0.000000   -3.893541
      4          8           0        0.000000    0.000000   -2.541161
 ---------------------------------------------------------------------

 SCF Done:  E(UHF) =  -298.961438325     A.U. after   11 cycles
 E2 =    -0.1251790838D+01 EUMP2 =    -0.30021322916249D+03
 CCSD(T)
 CCSD(T)= -0.30013635416D+03

 The electronic state is 3-SGG.
 Alpha  occ. eigenvalues --  -20.22982 -20.22982 -20.21150 -20.21150  -1.07896
 Alpha  occ. eigenvalues --   -1.07896  -0.71525  -0.71523  -0.26427  -0.26427
 Alpha  occ. eigenvalues --   -0.26427  -0.26427  -0.20838  -0.20824  -0.05530
 Alpha  occ. eigenvalues --   -0.05530  -0.05528  -0.05528
 Alpha virt. eigenvalues --    0.71030   0.71417   1.11239   1.11816   1.12325
 Alpha virt. eigenvalues --    1.12325   1.12338   1.12338   1.16229   1.16799
 Alpha virt. eigenvalues --    1.20918   1.20918   1.20955   1.20955   1.34423

  Beta  occ. eigenvalues --  -20.19592 -20.19591 -20.18460 -20.18460  -0.99814
  Beta  occ. eigenvalues --   -0.99806  -0.60216  -0.60144  -0.18320  -0.18294
  Beta  occ. eigenvalues --   -0.11966  -0.11966  -0.11756  -0.11756   0.23495
  Beta  occ. eigenvalues --    0.23495
  Beta virt. eigenvalues --    0.32115   0.32115   0.74182   0.74635   1.13124
  Beta virt. eigenvalues --    1.13588   1.17084   1.17238   1.17238   1.17250
  Beta virt. eigenvalues --    1.17250   1.17751   1.26244   1.26244   1.26283

 Mulliken charges and spin densities:
               1          2
     1  O   -0.442515   0.575094
     2  O   -0.557485   0.424906
     3  O   -0.557485   0.424906
     4  O   -0.442515   0.575094
 Sum of Mulliken charges =  -2.00000   2.00000

 Dipole moment (field-independent basis, Debye):
    X=             -0.0000    Y=              0.0000    Z=             -0.0000  Tot=              0.0000
 Quadrupole moment (field-independent basis, Debye-Ang):
   XX=            -24.9449   YY=            -24.9449   ZZ=           -135.2291
   XY=              0.0000   XZ=              0.0000   YZ=              0.0000

 Normal termination of Gaussian 16 at Sun Jan  1 00:46:16 2023.
