 Gaussian 16, Revision A.03,
 Gaussian 16:  ES64L-G16RevA.03 25-Dec-2016

 -------------------------------------
 #p CCSD(T)/cc-pVTZ Guess=Read SCF=XQC
 -------------------------------------

 ---------
 O2_O2_284
 ---------
 Symbolic Z-matrix:
 Charge = -2 Multiplicity = 3

                         Standard orientation:
 ---------------------------------------------------------------------
 Center     Atomic      Atomic             Coordinates (Angstroms)
 Number     Number       Type             X           Y           Z
 ---------------------------------------------------------------------
      1          8           0        0.000000    0.000000    2.803094
      2          8           0        0.000000    0.000000    4.155474
      3          8           0        0.000000    0.000000   -4.155474
      4          8           0        0.000000    0.000000   -2.803094
 ---------------------------------------------------------------------

 SCF Done:  E(UHF) =  -298.964292796     A.U. after   10 cycles
 E2 =    -0.1280230047D+01 EUMP2 =    -0.30024452284274D+03
 CCSD(T)
 CCSD(T)= -0.30014438779D+03

 The electronic state is 3-SGG.
 Alpha  occ. eigenvalues --  -20.23484 -20.23484 -20.21921 -20.21921  -1.08516
 Alpha  occ. eigenvalues --   -1.08516  -0.72170  -0.72170  -0.27044  -0.27044
 Alpha  occ. eigenvalues --   -0.27043  -0.27043  -0.21480  -0.21478  -0.06174
 Alpha  occ. eigenvalues --   -0.06174  -0.06173  -0.06173
 Alpha virt. eigenvalues --    0.70505   0.70583   1.10808   1.10924   1.11715
 Alpha virt. eigenvalues --    1.11715   1.11717   1.11717   1.15725   1.15820
 Alpha virt. eigenvalues --    1.20299   1.20299   1.20304   1.20304   1.33814

  Beta  occ. eigenvalues --  -20.20144 -20.20143 -20.19180 -20.19179  -1.00440
  Beta  occ. eigenvalues --   -1.00435  -0.60846  -0.60794  -0.18962  -0.18953
  Beta  occ. eigenvalues --   -0.12558  -0.12558  -0.12394  -0.12394   0.23210
  Beta  occ. eigenvalues --    0.23210
  Beta virt. eigenvalues --    0.31112   0.31112   0.73678   0.73771   1.12672
  Beta virt. eigenvalues --    1.12777   1.16598   1.16636   1.16636   1.16639
  Beta virt. eigenvalues --    1.16639   1.16716   1.25619   1.25619   1.25625

 Mulliken charges and spin densities:
               1          2
     1  O   -0.450860   0.564242
     2  O   -0.549140   0.435758
     3  O   -0.549140   0.435758
     4  O   -0.450860   0.564242
 Sum of Mulliken charges =  -2.00000   2.00000

 Dipole moment (field-independent basis, Debye):
    X=             -0.0000    Y=             -0.0000    Z=              0.0000  Tot=              0.0000
 Quadrupole moment (field-independent basis, Debye-Ang):
   XX=            -24.9424   YY=            -24.9424   ZZ=           -151.6776
   XY=              0.0000   XZ=              0.0000   YZ=              0.0000

 Normal termination of Gaussian 16 at Sun Jan  1 01:31:28 2023.
