 Gaussian 16, Revision A.03,
 Gaussian 16:  ES64L-G16RevA.03 25-Dec-2016

 -------------------------------------
 #p CCSD(T)/cc-pVTZ Guess=Read SCF=XQC
 -------------------------------------

 --------
 O2_O2_71
 --------
 Symbolic Z-matrix:
 Charge = -2 Multiplicity = 3

                         Standard orientation:
 ---------------------------------------------------------------------
 Center     Atomic      Atomic             Coordinates (Angstroms)
 Number     Number       Type             X           Y           Z
 ---------------------------------------------------------------------
      1          8           0        0.000000    0.000000    1.295205
      2          8           0        0.000000    0.000000    2.647585
      3          8           0        0.000000    0.000000   -2.647585
      4          8           0        0.000000    0.000000   -1.295205
 ---------------------------------------------------------------------

 SCF Done:  E(UHF) =  -298.960367445     A.U. after   12 cycles
 E2 =    -0.1086910753D+01 EUMP2 =    -0.30004727819764D+03
 CCSD(T)
 CCSD(T)= -0.30007280400D+03

 The electronic state is 3-SGG.
 Alpha  occ. eigenvalues --  -20.20590 -20.20590 -20.14173 -20.14173  -1.03779
 Alpha  occ. eigenvalues --   -1.03486  -0.67139  -0.65909  -0.22572  -0.22572
 Alpha  occ. eigenvalues --   -0.22011  -0.22011  -0.17472  -0.14151  -0.00786
 Alpha  occ. eigenvalues --   -0.00786  -0.00108  -0.00108
 Alpha virt. eigenvalues --    0.74758   0.81241   1.13537   1.13537   1.15761
 Alpha virt. eigenvalues --    1.17224   1.18483   1.18483   1.20607   1.22545
 Alpha virt. eigenvalues --    1.22545   1.33164   1.33164   1.38237   1.38986

  Beta  occ. eigenvalues --  -20.16301 -20.16298 -20.12211 -20.12211  -0.95174
  Beta  occ. eigenvalues --   -0.94818  -0.56297  -0.54052  -0.15121  -0.11180
  Beta  occ. eigenvalues --   -0.07911  -0.07911  -0.06576  -0.06576   0.24220
  Beta  occ. eigenvalues --    0.24220
  Beta virt. eigenvalues --    0.42241   0.42241   0.78077   0.85128   1.16888
  Beta virt. eigenvalues --    1.17784   1.19898   1.19898   1.22623   1.22623
  Beta virt. eigenvalues --    1.22710   1.26948   1.26948   1.38620   1.39165

 Mulliken charges and spin densities:
               1          2
     1  O   -0.336869   0.724145
     2  O   -0.663131   0.275855
     3  O   -0.663131   0.275855
     4  O   -0.336869   0.724145
 Sum of Mulliken charges =  -2.00000   2.00000

 Dipole moment (field-independent basis, Debye):
    X=             -0.0000    Y=             -0.0000    Z=             -0.0000  Tot=              0.0000
 Quadrupole moment (field-independent basis, Debye-Ang):
   XX=            -25.0656   YY=            -25.0656   ZZ=            -76.4554
   XY=              0.0000   XZ=              0.0000   YZ=              0.0000

 Normal termination of Gaussian 16 at Sat Dec 31 21:09:22 2022.
