 Gaussian 16, Revision A.03,
 Gaussian 16:  ES64L-G16RevA.03 25-Dec-2016

 -------------------------------------
 #p CCSD(T)/cc-pVTZ Guess=Read SCF=XQC
 -------------------------------------

 ---------
 O2_O2_181
 ---------
 Symbolic Z-matrix:
 Charge = -2 Multiplicity = 3

                         Standard orientation:
 ---------------------------------------------------------------------
 Center     Atomic      Atomic             Coordinates (Angstroms)
 Number     Number       Type             X           Y           Z
 ---------------------------------------------------------------------
      1          8           0        0.000000    0.000000    2.073927
      2          8           0        0.000000    0.000000    3.426307
      3          8           0        0.000000    0.000000   -3.426307
      4          8           0        0.000000    0.000000   -2.073927
 ---------------------------------------------------------------------

 SCF Done:  E(UHF) =  -298.955990252     A.U. after   11 cycles
 E2 =    -0.1198743886D+01 EUMP2 =    -0.30015473413739D+03
 CCSD(T)
 CCSD(T)= -0.30011835198D+03

 The electronic state is 3-SGG.
 Alpha  occ. eigenvalues --  -20.21947 -20.21947 -20.19371 -20.19371  -1.06539
 Alpha  occ. eigenvalues --   -1.06536  -0.70095  -0.70068  -0.25088  -0.25088
 Alpha  occ. eigenvalues --   -0.25076  -0.25076  -0.19462  -0.19304  -0.04103
 Alpha  occ. eigenvalues --   -0.04103  -0.04077  -0.04077
 Alpha virt. eigenvalues --    0.71132   0.74174   1.09770   1.13569   1.13569
 Alpha virt. eigenvalues --    1.13806   1.13806   1.14222   1.16212   1.22029
 Alpha virt. eigenvalues --    1.22029   1.22691   1.22691   1.23058   1.35752

  Beta  occ. eigenvalues --  -20.18418 -20.18417 -20.16819 -20.16819  -0.98428
  Beta  occ. eigenvalues --   -0.98407  -0.58831  -0.58665  -0.16951  -0.16743
  Beta  occ. eigenvalues --   -0.10680  -0.10680  -0.10327  -0.10327   0.24067
  Beta  occ. eigenvalues --    0.24067
  Beta virt. eigenvalues --    0.34451   0.34451   0.74051   0.77614   1.11936
  Beta virt. eigenvalues --    1.15528   1.16939   1.18492   1.18492   1.18668
  Beta virt. eigenvalues --    1.18668   1.24317   1.27358   1.27358   1.28061

 Mulliken charges and spin densities:
               1          2
     1  O   -0.421172   0.603827
     2  O   -0.578828   0.396173
     3  O   -0.578828   0.396173
     4  O   -0.421172   0.603827
 Sum of Mulliken charges =  -2.00000   2.00000

 Dipole moment (field-independent basis, Debye):
    X=             -0.0000    Y=              0.0000    Z=              0.0000  Tot=              0.0000
 Quadrupole moment (field-independent basis, Debye-Ang):
   XX=            -24.9558   YY=            -24.9558   ZZ=           -109.3381
   XY=              0.0000   XZ=              0.0000   YZ=              0.0000

 Normal termination of Gaussian 16 at Sat Dec 31 23:24:32 2022.
