 Gaussian 16, Revision A.03,
 Gaussian 16:  ES64L-G16RevA.03 25-Dec-2016

 -------------------------------------
 #p CCSD(T)/cc-pVTZ Guess=Read SCF=XQC
 -------------------------------------

 --------
 O2_O2_51
 --------
 Symbolic Z-matrix:
 Charge = -2 Multiplicity = 3

                         Standard orientation:
 ---------------------------------------------------------------------
 Center     Atomic      Atomic             Coordinates (Angstroms)
 Number     Number       Type             X           Y           Z
 ---------------------------------------------------------------------
      1          8           0        0.000000    0.000000    1.153620
      2          8           0        0.000000    0.000000    2.506000
      3          8           0        0.000000    0.000000   -2.506000
      4          8           0        0.000000    0.000000   -1.153620
 ---------------------------------------------------------------------

 SCF Done:  E(UHF) =  -298.965203219     A.U. after   12 cycles
 E2 =    -0.1062468622D+01 EUMP2 =    -0.30002767184115D+03
 CCSD(T)
 CCSD(T)= -0.30006088890D+03

 The electronic state is 3-SGG.
 Alpha  occ. eigenvalues --  -20.20396 -20.20395 -20.12627 -20.12627  -1.03363
 Alpha  occ. eigenvalues --   -1.02689  -0.66840  -0.64416  -0.22295  -0.22295
 Alpha  occ. eigenvalues --   -0.21187  -0.21187  -0.17710  -0.12015   0.00019
 Alpha  occ. eigenvalues --    0.00019   0.01133   0.01133
 Alpha virt. eigenvalues --    0.76199   0.82855   1.13676   1.13676   1.16065
 Alpha virt. eigenvalues --    1.18108   1.19604   1.19604   1.23380   1.23380
 Alpha virt. eigenvalues --    1.29849   1.36320   1.36320   1.38581   1.39758

  Beta  occ. eigenvalues --  -20.15847 -20.15842 -20.10864 -20.10864  -0.94486
  Beta  occ. eigenvalues --   -0.93806  -0.56419  -0.52358  -0.15403  -0.08847
  Beta  occ. eigenvalues --   -0.07399  -0.07399  -0.05552  -0.05552   0.23688
  Beta  occ. eigenvalues --    0.23688
  Beta virt. eigenvalues --    0.44919   0.44919   0.79811   0.86769   1.17262
  Beta virt. eigenvalues --    1.18507   1.20557   1.20557   1.23493   1.23493
  Beta virt. eigenvalues --    1.27547   1.27547   1.31952   1.38924   1.40222

 Mulliken charges and spin densities:
               1          2
     1  O   -0.305586   0.763408
     2  O   -0.694414   0.236592
     3  O   -0.694414   0.236592
     4  O   -0.305586   0.763408
 Sum of Mulliken charges =  -2.00000   2.00000

 Dipole moment (field-independent basis, Debye):
    X=             -0.0000    Y=              0.0000    Z=              0.0000  Tot=              0.0000
 Quadrupole moment (field-independent basis, Debye-Ang):
   XX=            -25.1015   YY=            -25.1015   ZZ=            -71.9969
   XY=              0.0000   XZ=              0.0000   YZ=              0.0000

 Normal termination of Gaussian 16 at Sat Dec 31 20:45:30 2022.
