 Gaussian 16, Revision A.03,
 Gaussian 16:  ES64L-G16RevA.03 25-Dec-2016

 -------------------------------------
 #p CCSD(T)/cc-pVTZ Guess=Read SCF=XQC
 -------------------------------------

 ---------
 O2_O2_109
 ---------
 Symbolic Z-matrix:
 Charge = -2 Multiplicity = 3

                         Standard orientation:
 ---------------------------------------------------------------------
 Center     Atomic      Atomic             Coordinates (Angstroms)
 Number     Number       Type             X           Y           Z
 ---------------------------------------------------------------------
      1          8           0        0.000000    0.000000    1.564218
      2          8           0        0.000000    0.000000    2.916598
      3          8           0        0.000000    0.000000   -2.916598
      4          8           0        0.000000    0.000000   -1.564218
 ---------------------------------------------------------------------

 SCF Done:  E(UHF) =  -298.954382483     A.U. after   11 cycles
 E2 =    -0.1130791941D+01 EUMP2 =    -0.30008517442466D+03
 CCSD(T)
 CCSD(T)= -0.30009122383D+03

 The electronic state is 3-SGG.
 Alpha  occ. eigenvalues --  -20.20917 -20.20917 -20.16460 -20.16460  -1.04736
 Alpha  occ. eigenvalues --   -1.04674  -0.68140  -0.67802  -0.23374  -0.23374
 Alpha  occ. eigenvalues --   -0.23218  -0.23218  -0.17864  -0.16660  -0.02094
 Alpha  occ. eigenvalues --   -0.02094  -0.01843  -0.01843
 Alpha virt. eigenvalues --    0.71921   0.78700   1.08775   1.14167   1.14167
 Alpha virt. eigenvalues --    1.15582   1.16533   1.16533   1.17259   1.22128
 Alpha virt. eigenvalues --    1.22128   1.27788   1.27788   1.37398   1.37752

  Beta  occ. eigenvalues --  -20.17020 -20.17018 -20.14208 -20.14208  -0.96438
  Beta  occ. eigenvalues --   -0.96323  -0.56999  -0.56213  -0.15415  -0.13924
  Beta  occ. eigenvalues --   -0.08928  -0.08928  -0.08149  -0.08149   0.24500
  Beta  occ. eigenvalues --    0.24500
  Beta virt. eigenvalues --    0.38578   0.38578   0.74725   0.82494   1.10964
  Beta virt. eigenvalues --    1.16678   1.18072   1.19604   1.19604   1.21066
  Beta virt. eigenvalues --    1.21066   1.27130   1.27130   1.33465   1.33465

 Mulliken charges and spin densities:
               1          2
     1  O   -0.378107   0.665906
     2  O   -0.621893   0.334094
     3  O   -0.621893   0.334094
     4  O   -0.378107   0.665906
 Sum of Mulliken charges =  -2.00000   2.00000

 Dipole moment (field-independent basis, Debye):
    X=             -0.0000    Y=             -0.0000    Z=             -0.0000  Tot=              0.0000
 Quadrupole moment (field-independent basis, Debye-Ang):
   XX=            -25.0056   YY=            -25.0056   ZZ=            -86.3033
   XY=              0.0000   XZ=              0.0000   YZ=              0.0000

 Normal termination of Gaussian 16 at Sat Dec 31 21:55:15 2022.
