 Gaussian 16, Revision A.03,
 Gaussian 16:  ES64L-G16RevA.03 25-Dec-2016

 -------------------------------------
 #p CCSD(T)/cc-pVTZ Guess=Read SCF=XQC
 -------------------------------------

 ---------
 O2_O2_232
 ---------
 Symbolic Z-matrix:
 Charge = -2 Multiplicity = 3

                         Standard orientation:
 ---------------------------------------------------------------------
 Center     Atomic      Atomic             Coordinates (Angstroms)
 Number     Number       Type             X           Y           Z
 ---------------------------------------------------------------------
      1          8           0        0.000000    0.000000    2.434971
      2          8           0        0.000000    0.000000    3.787351
      3          8           0        0.000000    0.000000   -3.787351
      4          8           0        0.000000    0.000000   -2.434971
 ---------------------------------------------------------------------

 SCF Done:  E(UHF) =  -298.960200146     A.U. after   11 cycles
 E2 =    -0.1240084645D+01 EUMP2 =    -0.30020028479141D+03
 CCSD(T)
 CCSD(T)= -0.30013271707D+03

 The electronic state is 3-SGG.
 Alpha  occ. eigenvalues --  -20.22760 -20.22760 -20.20797 -20.20797  -1.07617
 Alpha  occ. eigenvalues --   -1.07617  -0.71233  -0.71230  -0.26151  -0.26151
 Alpha  occ. eigenvalues --   -0.26149  -0.26149  -0.20551  -0.20524  -0.05239
 Alpha  occ. eigenvalues --   -0.05239  -0.05235  -0.05235
 Alpha virt. eigenvalues --    0.71191   0.71868   1.11294   1.12305   1.12595
 Alpha virt. eigenvalues --    1.12595   1.12622   1.12622   1.16342   1.17436
 Alpha virt. eigenvalues --    1.21186   1.21186   1.21262   1.21262   1.34697

  Beta  occ. eigenvalues --  -20.19346 -20.19345 -20.18132 -20.18132  -0.99532
  Beta  occ. eigenvalues --   -0.99522  -0.59932  -0.59849  -0.18033  -0.17991
  Beta  occ. eigenvalues --   -0.11701  -0.11701  -0.11468  -0.11468   0.23620
  Beta  occ. eigenvalues --    0.23620
  Beta virt. eigenvalues --    0.32574   0.32574   0.74318   0.75114   1.13214
  Beta virt. eigenvalues --    1.14007   1.17173   1.17506   1.17506   1.17528
  Beta virt. eigenvalues --    1.17528   1.18438   1.26514   1.26514   1.26594

 Mulliken charges and spin densities:
               1          2
     1  O   -0.438515   0.580337
     2  O   -0.561485   0.419663
     3  O   -0.561485   0.419663
     4  O   -0.438515   0.580337
 Sum of Mulliken charges =  -2.00000   2.00000

 Dipole moment (field-independent basis, Debye):
    X=             -0.0000    Y=              0.0000    Z=             -0.0000  Tot=              0.0000
 Quadrupole moment (field-independent basis, Debye-Ang):
   XX=            -24.9463   YY=            -24.9463   ZZ=           -128.9548
   XY=              0.0000   XZ=              0.0000   YZ=              0.0000

 Normal termination of Gaussian 16 at Sun Jan  1 00:27:56 2023.
