 Gaussian 16, Revision A.03,
 Gaussian 16:  ES64L-G16RevA.03 25-Dec-2016

 --------------------------
 #p CCSD(T)/cc-pVTZ SCF=XQC
 --------------------------

 -------
 O2_O2_0
 -------
 Symbolic Z-matrix:
 Charge = -2 Multiplicity = 3

                         Standard orientation:
 ---------------------------------------------------------------------
 Center     Atomic      Atomic             Coordinates (Angstroms)
 Number     Number       Type             X           Y           Z
 ---------------------------------------------------------------------
      1          8           0        0.000000    0.000000    0.792575
      2          8           0        0.000000    0.000000    2.144956
      3          8           0        0.000000    0.000000   -2.144956
      4          8           0        0.000000    0.000000   -0.792575
 ---------------------------------------------------------------------

 SCF Done:  E(UHF) =  -298.907295822     A.U. after   16 cycles
 E2 =    -0.1022551844D+01 EUMP2 =    -0.29992984766640D+03
 CCSD(T)
 CCSD(T)= -0.29996544200D+03

 The electronic state is 3-SGG.
 Alpha  occ. eigenvalues --  -20.19239 -20.19238 -20.06495 -20.06495  -1.05297
 Alpha  occ. eigenvalues --   -0.98796  -0.70386  -0.56744  -0.24270  -0.24270
 Alpha  occ. eigenvalues --   -0.21523  -0.17158  -0.17158   0.01694   0.02612
 Alpha  occ. eigenvalues --    0.02612   0.06531   0.06531
 Alpha virt. eigenvalues --    0.78738   0.90604   1.16979   1.16979   1.17865
 Alpha virt. eigenvalues --    1.17965   1.23227   1.23227   1.28472   1.28472
 Alpha virt. eigenvalues --    1.37716   1.38635   1.42904   1.42904   1.54304

  Beta  occ. eigenvalues --  -20.14125 -20.14105 -20.05294 -20.05294  -0.94724
  Beta  occ. eigenvalues --   -0.89795  -0.63709  -0.44308  -0.18213  -0.07399
  Beta  occ. eigenvalues --   -0.07399  -0.01549  -0.01549   0.05972   0.19490
  Beta  occ. eigenvalues --    0.19490
  Beta virt. eigenvalues --    0.55342   0.55342   0.82743   0.94187   1.17812
  Beta virt. eigenvalues --    1.20537   1.23839   1.23839   1.26458   1.26458
  Beta virt. eigenvalues --    1.32961   1.32961   1.38644   1.38774   1.49145

 Mulliken charges and spin densities:
               1          2
     1  O   -0.166301   0.860052
     2  O   -0.833699   0.139948
     3  O   -0.833699   0.139948
     4  O   -0.166301   0.860052
 Sum of Mulliken charges =  -2.00000   2.00000

 Dipole moment (field-independent basis, Debye):
    X=             -0.0000    Y=             -0.0000    Z=             -0.0000  Tot=              0.0000
 Quadrupole moment (field-independent basis, Debye-Ang):
   XX=            -25.0006   YY=            -25.0006   ZZ=            -64.5077
   XY=              0.0000   XZ=              0.0000   YZ=              0.0000

 -0=-299.8939677\MP4SDQ=-299.9131919\CCSD=-299.9082401\CCSD(T)=-299.965
 Normal termination of Gaussian 16 at Sat Dec 31 19:46:01 2022.
