 Gaussian 16, Revision A.03,
 Gaussian 16:  ES64L-G16RevA.03 25-Dec-2016

 -------------------------------------
 #p CCSD(T)/cc-pVTZ Guess=Read SCF=XQC
 -------------------------------------

 ---------
 O2_O2_118
 ---------
 Symbolic Z-matrix:
 Charge = -2 Multiplicity = 3

                         Standard orientation:
 ---------------------------------------------------------------------
 Center     Atomic      Atomic             Coordinates (Angstroms)
 Number     Number       Type             X           Y           Z
 ---------------------------------------------------------------------
      1          8           0        0.000000    0.000000    1.627932
      2          8           0        0.000000    0.000000    2.980312
      3          8           0        0.000000    0.000000   -2.980312
      4          8           0        0.000000    0.000000   -1.627932
 ---------------------------------------------------------------------

 SCF Done:  E(UHF) =  -298.953890892     A.U. after   11 cycles
 E2 =    -0.1140298895D+01 EUMP2 =    -0.30009418978691D+03
 CCSD(T)
 CCSD(T)= -0.30009513856D+03

 The electronic state is 3-SGG.
 Alpha  occ. eigenvalues --  -20.21018 -20.21018 -20.16908 -20.16908  -1.04971
 Alpha  occ. eigenvalues --   -1.04927  -0.68397  -0.68149  -0.23588  -0.23588
 Alpha  occ. eigenvalues --   -0.23473  -0.23473  -0.18037  -0.17092  -0.02374
 Alpha  occ. eigenvalues --   -0.02374  -0.02178  -0.02178
 Alpha virt. eigenvalues --    0.71432   0.78129   1.07759   1.14238   1.14238
 Alpha virt. eigenvalues --    1.15519   1.16111   1.16111   1.17008   1.22166
 Alpha virt. eigenvalues --    1.22166   1.26795   1.26795   1.37175   1.37478

  Beta  occ. eigenvalues --  -20.17190 -20.17188 -20.14603 -20.14603  -0.96717
  Beta  occ. eigenvalues --   -0.96626  -0.57227  -0.56602  -0.15573  -0.14393
  Beta  occ. eigenvalues --   -0.09164  -0.09164  -0.08470  -0.08470   0.24487
  Beta  occ. eigenvalues --    0.24487
  Beta virt. eigenvalues --    0.37907   0.37907   0.74167   0.81892   1.10018
  Beta virt. eigenvalues --    1.16619   1.17802   1.19528   1.19528   1.20715
  Beta virt. eigenvalues --    1.20715   1.27270   1.27270   1.32405   1.32405

 Mulliken charges and spin densities:
               1          2
     1  O   -0.385444   0.655220
     2  O   -0.614556   0.344780
     3  O   -0.614556   0.344780
     4  O   -0.385444   0.655220
 Sum of Mulliken charges =  -2.00000   2.00000

 Dipole moment (field-independent basis, Debye):
    X=             -0.0000    Y=              0.0000    Z=             -0.0000  Tot=              0.0000
 Quadrupole moment (field-independent basis, Debye-Ang):
   XX=            -24.9952   YY=            -24.9952   ZZ=            -88.8740
   XY=              0.0000   XZ=              0.0000   YZ=              0.0000

 Normal termination of Gaussian 16 at Sat Dec 31 22:06:16 2022.
