 Gaussian 16, Revision A.03,
 Gaussian 16:  ES64L-G16RevA.03 25-Dec-2016

 -------------------------------------
 #p CCSD(T)/cc-pVTZ Guess=Read SCF=XQC
 -------------------------------------

 ---------
 O2_O2_229
 ---------
 Symbolic Z-matrix:
 Charge = -2 Multiplicity = 3

                         Standard orientation:
 ---------------------------------------------------------------------
 Center     Atomic      Atomic             Coordinates (Angstroms)
 Number     Number       Type             X           Y           Z
 ---------------------------------------------------------------------
      1          8           0        0.000000    0.000000    2.413733
      2          8           0        0.000000    0.000000    3.766113
      3          8           0        0.000000    0.000000   -3.766113
      4          8           0        0.000000    0.000000   -2.413733
 ---------------------------------------------------------------------

 SCF Done:  E(UHF) =  -298.959948517     A.U. after   11 cycles
 E2 =    -0.1237726104D+01 EUMP2 =    -0.30019767462059D+03
 CCSD(T)
 CCSD(T)= -0.30013196103D+03

 The electronic state is 3-SGG.
 Alpha  occ. eigenvalues --  -20.22715 -20.22715 -20.20723 -20.20723  -1.07559
 Alpha  occ. eigenvalues --   -1.07559  -0.71173  -0.71169  -0.26094  -0.26094
 Alpha  occ. eigenvalues --   -0.26092  -0.26092  -0.20491  -0.20462  -0.05178
 Alpha  occ. eigenvalues --   -0.05178  -0.05174  -0.05174
 Alpha virt. eigenvalues --    0.71216   0.71970   1.11289   1.12412   1.12651
 Alpha virt. eigenvalues --    1.12651   1.12681   1.12681   1.16354   1.17594
 Alpha virt. eigenvalues --    1.21240   1.21240   1.21327   1.21327   1.34754

  Beta  occ. eigenvalues --  -20.19295 -20.19294 -20.18064 -20.18064  -0.99473
  Beta  occ. eigenvalues --   -0.99463  -0.59873  -0.59787  -0.17974  -0.17927
  Beta  occ. eigenvalues --   -0.11646  -0.11646  -0.11408  -0.11408   0.23645
  Beta  occ. eigenvalues --    0.23645
  Beta virt. eigenvalues --    0.32671   0.32671   0.74337   0.75221   1.13219
  Beta virt. eigenvalues --    1.14096   1.17179   1.17561   1.17561   1.17586
  Beta virt. eigenvalues --    1.17586   1.18609   1.26568   1.26568   1.26661

 Mulliken charges and spin densities:
               1          2
     1  O   -0.437665   0.581458
     2  O   -0.562335   0.418542
     3  O   -0.562335   0.418542
     4  O   -0.437665   0.581458
 Sum of Mulliken charges =  -2.00000   2.00000

 Dipole moment (field-independent basis, Debye):
    X=             -0.0000    Y=             -0.0000    Z=             -0.0000  Tot=              0.0000
 Quadrupole moment (field-independent basis, Debye-Ang):
   XX=            -24.9466   YY=            -24.9466   ZZ=           -127.7273
   XY=              0.0000   XZ=              0.0000   YZ=              0.0000

 Normal termination of Gaussian 16 at Sun Jan  1 00:24:23 2023.
