 Gaussian 16, Revision A.03,
 Gaussian 16:  ES64L-G16RevA.03 25-Dec-2016

 -------------------------------------
 #p CCSD(T)/cc-pVTZ Guess=Read SCF=XQC
 -------------------------------------

 ---------
 O2_O2_129
 ---------
 Symbolic Z-matrix:
 Charge = -2 Multiplicity = 3

                         Standard orientation:
 ---------------------------------------------------------------------
 Center     Atomic      Atomic             Coordinates (Angstroms)
 Number     Number       Type             X           Y           Z
 ---------------------------------------------------------------------
      1          8           0        0.000000    0.000000    1.705804
      2          8           0        0.000000    0.000000    3.058184
      3          8           0        0.000000    0.000000   -3.058184
      4          8           0        0.000000    0.000000   -1.705804
 ---------------------------------------------------------------------

 SCF Done:  E(UHF) =  -298.953666223     A.U. after   11 cycles
 E2 =    -0.1151452859D+01 EUMP2 =    -0.30010511908148D+03
 CCSD(T)
 CCSD(T)= -0.30009971124D+03

 The electronic state is 3-SGG.
 Alpha  occ. eigenvalues --  -20.21156 -20.21156 -20.17416 -20.17416  -1.05257
 Alpha  occ. eigenvalues --   -1.05229  -0.68710  -0.68540  -0.23853  -0.23853
 Alpha  occ. eigenvalues --   -0.23775  -0.23775  -0.18269  -0.17567  -0.02703
 Alpha  occ. eigenvalues --   -0.02703  -0.02561  -0.02561
 Alpha virt. eigenvalues --    0.71020   0.77428   1.07165   1.14247   1.14247
 Alpha virt. eigenvalues --    1.15402   1.15624   1.15624   1.16742   1.22225
 Alpha virt. eigenvalues --    1.22225   1.25746   1.25746   1.36868   1.37153

  Beta  occ. eigenvalues --  -20.17401 -20.17400 -20.15054 -20.15054  -0.97046
  Beta  occ. eigenvalues --   -0.96978  -0.57513  -0.57036  -0.15791  -0.14906
  Beta  occ. eigenvalues --   -0.09448  -0.09448  -0.08840  -0.08840   0.24447
  Beta  occ. eigenvalues --    0.24447
  Beta virt. eigenvalues --    0.37163   0.37163   0.73714   0.81147   1.09465
  Beta virt. eigenvalues --    1.16512   1.17524   1.19402   1.19402   1.20302
  Beta virt. eigenvalues --    1.20302   1.27419   1.27419   1.31286   1.31286

 Mulliken charges and spin densities:
               1          2
     1  O   -0.393458   0.643537
     2  O   -0.606542   0.356463
     3  O   -0.606542   0.356463
     4  O   -0.393458   0.643537
 Sum of Mulliken charges =  -2.00000   2.00000

 Dipole moment (field-independent basis, Debye):
    X=             -0.0000    Y=             -0.0000    Z=             -0.0000  Tot=              0.0000
 Quadrupole moment (field-independent basis, Debye-Ang):
   XX=            -24.9845   YY=            -24.9845   ZZ=            -92.1368
   XY=              0.0000   XZ=              0.0000   YZ=              0.0000

 Normal termination of Gaussian 16 at Sat Dec 31 22:20:01 2022.
