 Gaussian 16, Revision A.03,
 Gaussian 16:  ES64L-G16RevA.03 25-Dec-2016

 -------------------------------------
 #p CCSD(T)/cc-pVTZ Guess=Read SCF=XQC
 -------------------------------------

 --------
 O2_O2_69
 --------
 Symbolic Z-matrix:
 Charge = -2 Multiplicity = 3

                         Standard orientation:
 ---------------------------------------------------------------------
 Center     Atomic      Atomic             Coordinates (Angstroms)
 Number     Number       Type             X           Y           Z
 ---------------------------------------------------------------------
      1          8           0        0.000000    0.000000    1.281047
      2          8           0        0.000000    0.000000    2.633427
      3          8           0        0.000000    0.000000   -2.633427
      4          8           0        0.000000    0.000000   -1.281047
 ---------------------------------------------------------------------

 SCF Done:  E(UHF) =  -298.960850384     A.U. after   12 cycles
 E2 =    -0.1084469702D+01 EUMP2 =    -0.30004532008571D+03
 CCSD(T)
 CCSD(T)= -0.30007172165D+03

 The electronic state is 3-SGG.
 Alpha  occ. eigenvalues --  -20.20574 -20.20574 -20.14031 -20.14031  -1.03733
 Alpha  occ. eigenvalues --   -1.03414  -0.67097  -0.65780  -0.22537  -0.22537
 Alpha  occ. eigenvalues --   -0.21938  -0.21938  -0.17477  -0.13972  -0.00710
 Alpha  occ. eigenvalues --   -0.00710   0.00003   0.00003
 Alpha virt. eigenvalues --    0.74910   0.81390   1.13520   1.13520   1.15782
 Alpha virt. eigenvalues --    1.17420   1.18592   1.18592   1.21326   1.22607
 Alpha virt. eigenvalues --    1.22607   1.33480   1.33480   1.38276   1.39055

  Beta  occ. eigenvalues --  -20.16260 -20.16257 -20.12088 -20.12087  -0.95104
  Beta  occ. eigenvalues --   -0.94725  -0.56285  -0.53905  -0.15131  -0.10985
  Beta  occ. eigenvalues --   -0.07858  -0.07858  -0.06481  -0.06481   0.24182
  Beta  occ. eigenvalues --    0.24182
  Beta virt. eigenvalues --    0.42481   0.42481   0.78260   0.85280   1.16913
  Beta virt. eigenvalues --    1.17924   1.19936   1.19936   1.22708   1.22708
  Beta virt. eigenvalues --    1.23468   1.26979   1.26979   1.38655   1.39497

 Mulliken charges and spin densities:
               1          2
     1  O   -0.334117   0.727827
     2  O   -0.665883   0.272173
     3  O   -0.665883   0.272173
     4  O   -0.334117   0.727827
 Sum of Mulliken charges =  -2.00000   2.00000

 Dipole moment (field-independent basis, Debye):
    X=             -0.0000    Y=              0.0000    Z=             -0.0000  Tot=              0.0000
 Quadrupole moment (field-independent basis, Debye-Ang):
   XX=            -25.0693   YY=            -25.0693   ZZ=            -75.9847
   XY=              0.0000   XZ=              0.0000   YZ=              0.0000

 Normal termination of Gaussian 16 at Sat Dec 31 21:07:05 2022.
