 Gaussian 16, Revision A.03,
 Gaussian 16:  ES64L-G16RevA.03 25-Dec-2016

 -------------------------------------
 #p CCSD(T)/cc-pVTZ Guess=Read SCF=XQC
 -------------------------------------

 ---------
 O2_O2_141
 ---------
 Symbolic Z-matrix:
 Charge = -2 Multiplicity = 3

                         Standard orientation:
 ---------------------------------------------------------------------
 Center     Atomic      Atomic             Coordinates (Angstroms)
 Number     Number       Type             X           Y           Z
 ---------------------------------------------------------------------
      1          8           0        0.000000    0.000000    1.790756
      2          8           0        0.000000    0.000000    3.143136
      3          8           0        0.000000    0.000000   -3.143136
      4          8           0        0.000000    0.000000   -1.790756
 ---------------------------------------------------------------------

 SCF Done:  E(UHF) =  -298.953799481     A.U. after   11 cycles
 E2 =    -0.1163084978D+01 EUMP2 =    -0.30011688445938D+03
 CCSD(T)
 CCSD(T)= -0.30010443611D+03

 The electronic state is 3-SGG.
 Alpha  occ. eigenvalues --  -20.21322 -20.21322 -20.17927 -20.17927  -1.05565
 Alpha  occ. eigenvalues --   -1.05548  -0.69047  -0.68934  -0.24145  -0.24145
 Alpha  occ. eigenvalues --   -0.24093  -0.24093  -0.18538  -0.18032  -0.03048
 Alpha  occ. eigenvalues --   -0.03048  -0.02949  -0.02949
 Alpha virt. eigenvalues --    0.70810   0.76657   1.07199   1.14175   1.14175
 Alpha virt. eigenvalues --    1.15133   1.15133   1.15221   1.16507   1.22266
 Alpha virt. eigenvalues --    1.22266   1.24792   1.24792   1.35001   1.36813

  Beta  occ. eigenvalues --  -20.17635 -20.17634 -20.15511 -20.15511  -0.97390
  Beta  occ. eigenvalues --   -0.97339  -0.57828  -0.57466  -0.16048  -0.15405
  Beta  occ. eigenvalues --   -0.09748  -0.09748  -0.09219  -0.09219   0.24380
  Beta  occ. eigenvalues --    0.24380
  Beta virt. eigenvalues --    0.36433   0.36433   0.73509   0.80319   1.09504
  Beta virt. eigenvalues --    1.16353   1.17277   1.19229   1.19229   1.19875
  Beta virt. eigenvalues --    1.19875   1.27524   1.27524   1.30272   1.30272

 Mulliken charges and spin densities:
               1          2
     1  O   -0.401182   0.632320
     2  O   -0.598818   0.367680
     3  O   -0.598818   0.367680
     4  O   -0.401182   0.632320
 Sum of Mulliken charges =  -2.00000   2.00000

 Dipole moment (field-independent basis, Debye):
    X=             -0.0000    Y=              0.0000    Z=             -0.0000  Tot=              0.0000
 Quadrupole moment (field-independent basis, Debye-Ang):
   XX=            -24.9750   YY=            -24.9750   ZZ=            -95.8474
   XY=              0.0000   XZ=              0.0000   YZ=              0.0000

 Normal termination of Gaussian 16 at Sat Dec 31 22:35:37 2022.
