 Gaussian 16, Revision A.03,
 Gaussian 16:  ES64L-G16RevA.03 25-Dec-2016

 -------------------------------------
 #p CCSD(T)/cc-pVTZ Guess=Read SCF=XQC
 -------------------------------------

 ---------
 O2_O2_251
 ---------
 Symbolic Z-matrix:
 Charge = -2 Multiplicity = 3

                         Standard orientation:
 ---------------------------------------------------------------------
 Center     Atomic      Atomic             Coordinates (Angstroms)
 Number     Number       Type             X           Y           Z
 ---------------------------------------------------------------------
      1          8           0        0.000000    0.000000    2.569478
      2          8           0        0.000000    0.000000    3.921858
      3          8           0        0.000000    0.000000   -3.921858
      4          8           0        0.000000    0.000000   -2.569478
 ---------------------------------------------------------------------

 SCF Done:  E(UHF) =  -298.961761614     A.U. after   11 cycles
 E2 =    -0.1254891509D+01 EUMP2 =    -0.30021665312283D+03
 CCSD(T)
 CCSD(T)= -0.30013728445D+03

 The electronic state is 3-SGG.
 Alpha  occ. eigenvalues --  -20.23039 -20.23039 -20.21240 -20.21240  -1.07967
 Alpha  occ. eigenvalues --   -1.07967  -0.71600  -0.71598  -0.26498  -0.26498
 Alpha  occ. eigenvalues --   -0.26498  -0.26498  -0.20912  -0.20900  -0.05604
 Alpha  occ. eigenvalues --   -0.05604  -0.05603  -0.05603
 Alpha virt. eigenvalues --    0.70980   0.71310   1.11207   1.11700   1.12255
 Alpha virt. eigenvalues --    1.12255   1.12266   1.12266   1.16186   1.16661
 Alpha virt. eigenvalues --    1.20848   1.20848   1.20878   1.20878   1.34353

  Beta  occ. eigenvalues --  -20.19655 -20.19655 -20.18544 -20.18544  -0.99886
  Beta  occ. eigenvalues --   -0.99879  -0.60288  -0.60220  -0.18394  -0.18371
  Beta  occ. eigenvalues --   -0.12034  -0.12034  -0.11830  -0.11830   0.23462
  Beta  occ. eigenvalues --    0.23462
  Beta virt. eigenvalues --    0.31998   0.31998   0.74136   0.74523   1.13087
  Beta virt. eigenvalues --    1.13486   1.17046   1.17169   1.17169   1.17179
  Beta virt. eigenvalues --    1.17179   1.17604   1.26173   1.26173   1.26205

 Mulliken charges and spin densities:
               1          2
     1  O   -0.443515   0.573788
     2  O   -0.556485   0.426212
     3  O   -0.556485   0.426212
     4  O   -0.443515   0.573788
 Sum of Mulliken charges =  -2.00000   2.00000

 Dipole moment (field-independent basis, Debye):
    X=             -0.0000    Y=              0.0000    Z=             -0.0000  Tot=              0.0000
 Quadrupole moment (field-independent basis, Debye-Ang):
   XX=            -24.9445   YY=            -24.9445   ZZ=           -136.9408
   XY=              0.0000   XZ=              0.0000   YZ=              0.0000

 Normal termination of Gaussian 16 at Sun Jan  1 00:51:13 2023.
