 Gaussian 16, Revision A.03,
 Gaussian 16:  ES64L-G16RevA.03 25-Dec-2016

 -------------------------------------
 #p CCSD(T)/cc-pVTZ Guess=Read SCF=XQC
 -------------------------------------

 ---------
 O2_O2_135
 ---------
 Symbolic Z-matrix:
 Charge = -2 Multiplicity = 3

                         Standard orientation:
 ---------------------------------------------------------------------
 Center     Atomic      Atomic             Coordinates (Angstroms)
 Number     Number       Type             X           Y           Z
 ---------------------------------------------------------------------
      1          8           0        0.000000    0.000000    1.748280
      2          8           0        0.000000    0.000000    3.100660
      3          8           0        0.000000    0.000000   -3.100660
      4          8           0        0.000000    0.000000   -1.748280
 ---------------------------------------------------------------------

 SCF Done:  E(UHF) =  -298.953689628     A.U. after   11 cycles
 E2 =    -0.1157334815D+01 EUMP2 =    -0.30011102444345D+03
 CCSD(T)
 CCSD(T)= -0.30010210765D+03

 The electronic state is 3-SGG.
 Alpha  occ. eigenvalues --  -20.21237 -20.21237 -20.17677 -20.17677  -1.05412
 Alpha  occ. eigenvalues --   -1.05390  -0.68879  -0.68741  -0.23999  -0.23999
 Alpha  occ. eigenvalues --   -0.23935  -0.23935  -0.18402  -0.17806  -0.02877
 Alpha  occ. eigenvalues --   -0.02877  -0.02758  -0.02758
 Alpha virt. eigenvalues --    0.70885   0.77043   1.07104   1.14221   1.14221
 Alpha virt. eigenvalues --    1.15318   1.15373   1.15373   1.16617   1.22250
 Alpha virt. eigenvalues --    1.22250   1.25246   1.25246   1.36566   1.36981

  Beta  occ. eigenvalues --  -20.17518 -20.17516 -20.15287 -20.15287  -0.97220
  Beta  occ. eigenvalues --   -0.97161  -0.57671  -0.57256  -0.15918  -0.15162
  Beta  occ. eigenvalues --   -0.09599  -0.09599  -0.09033  -0.09033   0.24416
  Beta  occ. eigenvalues --    0.24416
  Beta virt. eigenvalues --    0.36788   0.36788   0.73575   0.80735   1.09411
  Beta virt. eigenvalues --    1.16438   1.17393   1.19320   1.19320   1.20085
  Beta virt. eigenvalues --    1.20085   1.27480   1.27480   1.30753   1.30753

 Mulliken charges and spin densities:
               1          2
     1  O   -0.397442   0.637743
     2  O   -0.602558   0.362257
     3  O   -0.602558   0.362257
     4  O   -0.397442   0.637743
 Sum of Mulliken charges =  -2.00000   2.00000

 Dipole moment (field-independent basis, Debye):
    X=             -0.0000    Y=             -0.0000    Z=             -0.0000  Tot=              0.0000
 Quadrupole moment (field-independent basis, Debye-Ang):
   XX=            -24.9795   YY=            -24.9795   ZZ=            -93.9724
   XY=              0.0000   XZ=              0.0000   YZ=              0.0000

 Normal termination of Gaussian 16 at Sat Dec 31 22:27:52 2022.
