 Gaussian 16, Revision A.03,
 Gaussian 16:  ES64L-G16RevA.03 25-Dec-2016

 -------------------------------------
 #p CCSD(T)/cc-pVTZ Guess=Read SCF=XQC
 -------------------------------------

 -------
 O2_O2_8
 -------
 Symbolic Z-matrix:
 Charge = -2 Multiplicity = 3

                         Standard orientation:
 ---------------------------------------------------------------------
 Center     Atomic      Atomic             Coordinates (Angstroms)
 Number     Number       Type             X           Y           Z
 ---------------------------------------------------------------------
      1          8           0        0.000000    0.000000    0.849210
      2          8           0        0.000000    0.000000    2.201590
      3          8           0        0.000000    0.000000   -2.201590
      4          8           0        0.000000    0.000000   -0.849210
 ---------------------------------------------------------------------

 SCF Done:  E(UHF) =  -298.936599923     A.U. after   11 cycles
 E2 =    -0.1023071150D+01 EUMP2 =    -0.29995967107359D+03
 CCSD(T)
 CCSD(T)= -0.29999743691D+03

 The electronic state is 3-SGG.
 Alpha  occ. eigenvalues --  -20.19384 -20.19382 -20.07803 -20.07803  -1.04105
 Alpha  occ. eigenvalues --   -0.99691  -0.68987  -0.58495  -0.23274  -0.23274
 Alpha  occ. eigenvalues --   -0.20563  -0.18067  -0.18067  -0.01936   0.02140
 Alpha  occ. eigenvalues --    0.02140   0.05376   0.05376
 Alpha virt. eigenvalues --    0.78613   0.88658   1.16516   1.16516   1.17428
 Alpha virt. eigenvalues --    1.18202   1.22535   1.22535   1.27318   1.27318
 Alpha virt. eigenvalues --    1.38284   1.38738   1.42116   1.42116   1.51909

  Beta  occ. eigenvalues --  -20.14327 -20.14313 -20.06524 -20.06524  -0.94000
  Beta  occ. eigenvalues --   -0.90612  -0.61300  -0.46046  -0.17626  -0.06991
  Beta  occ. eigenvalues --   -0.06991  -0.02401  -0.02401   0.02064   0.20542
  Beta  occ. eigenvalues --    0.20542
  Beta virt. eigenvalues --    0.53324   0.53324   0.82649   0.92397   1.18263
  Beta virt. eigenvalues --    1.19522   1.23554   1.23554   1.25851   1.25851
  Beta virt. eigenvalues --    1.31837   1.31837   1.38824   1.39321   1.48341

 Mulliken charges and spin densities:
               1          2
     1  O   -0.198582   0.850027
     2  O   -0.801418   0.149973
     3  O   -0.801418   0.149973
     4  O   -0.198582   0.850027
 Sum of Mulliken charges =  -2.00000   2.00000

 Dipole moment (field-independent basis, Debye):
    X=             -0.0000    Y=             -0.0000    Z=              0.0000  Tot=              0.0000
 Quadrupole moment (field-independent basis, Debye-Ang):
   XX=            -25.0603   YY=            -25.0603   ZZ=            -65.0947
   XY=              0.0000   XZ=              0.0000   YZ=              0.0000

 092\PMP3-0=-299.9260667\MP4SDQ=-299.9431653\CCSD=-299.9382506\CCSD(T)=
 Normal termination of Gaussian 16 at Sat Dec 31 19:55:13 2022.
