 Gaussian 16, Revision A.03,
 Gaussian 16:  ES64L-G16RevA.03 25-Dec-2016

 -------------------------------------
 #p CCSD(T)/cc-pVTZ Guess=Read SCF=XQC
 -------------------------------------

 --------
 O2_O2_55
 --------
 Symbolic Z-matrix:
 Charge = -2 Multiplicity = 3

                         Standard orientation:
 ---------------------------------------------------------------------
 Center     Atomic      Atomic             Coordinates (Angstroms)
 Number     Number       Type             X           Y           Z
 ---------------------------------------------------------------------
      1          8           0        0.000000    0.000000    1.181937
      2          8           0        0.000000    0.000000    2.534317
      3          8           0        0.000000    0.000000   -2.534317
      4          8           0        0.000000    0.000000   -1.181937
 ---------------------------------------------------------------------

 SCF Done:  E(UHF) =  -298.964315081     A.U. after   12 cycles
 E2 =    -0.1067320276D+01 EUMP2 =    -0.30003163535713D+03
 CCSD(T)
 CCSD(T)= -0.30006352259D+03

 The electronic state is 3-SGG.
 Alpha  occ. eigenvalues --  -20.20443 -20.20443 -20.12960 -20.12960  -1.03436
 Alpha  occ. eigenvalues --   -1.02865  -0.66873  -0.64757  -0.22336  -0.22336
 Alpha  occ. eigenvalues --   -0.21371  -0.21371  -0.17623  -0.12514  -0.00151
 Alpha  occ. eigenvalues --   -0.00151   0.00859   0.00859
 Alpha virt. eigenvalues --    0.75926   0.82505   1.13584   1.13584   1.15988
 Alpha virt. eigenvalues --    1.18031   1.19373   1.19373   1.23173   1.23173
 Alpha virt. eigenvalues --    1.27774   1.35697   1.35697   1.38521   1.39576

  Beta  occ. eigenvalues --  -20.15948 -20.15943 -20.11155 -20.11155  -0.94621
  Beta  occ. eigenvalues --   -0.94025  -0.56342  -0.52741  -0.15312  -0.09392
  Beta  occ. eigenvalues --   -0.07497  -0.07497  -0.05771  -0.05771   0.23826
  Beta  occ. eigenvalues --    0.23826
  Beta virt. eigenvalues --    0.44331   0.44331   0.79482   0.86416   1.17164
  Beta virt. eigenvalues --    1.18440   1.20369   1.20369   1.23314   1.23314
  Beta virt. eigenvalues --    1.27371   1.27371   1.29899   1.38873   1.40068

 Mulliken charges and spin densities:
               1          2
     1  O   -0.312572   0.755159
     2  O   -0.687428   0.244841
     3  O   -0.687428   0.244841
     4  O   -0.312572   0.755159
 Sum of Mulliken charges =  -2.00000   2.00000

 Dipole moment (field-independent basis, Debye):
    X=             -0.0000    Y=              0.0000    Z=              0.0000  Tot=              0.0000
 Quadrupole moment (field-independent basis, Debye-Ang):
   XX=            -25.0948   YY=            -25.0948   ZZ=            -72.8417
   XY=              0.0000   XZ=              0.0000   YZ=              0.0000

 Normal termination of Gaussian 16 at Sat Dec 31 20:50:20 2022.
