 Gaussian 16, Revision A.03,
 Gaussian 16:  ES64L-G16RevA.03 25-Dec-2016

 -------------------------------------
 #p CCSD(T)/cc-pVTZ Guess=Read SCF=XQC
 -------------------------------------

 ---------
 O2_O2_297
 ---------
 Symbolic Z-matrix:
 Charge = -2 Multiplicity = 3

                         Standard orientation:
 ---------------------------------------------------------------------
 Center     Atomic      Atomic             Coordinates (Angstroms)
 Number     Number       Type             X           Y           Z
 ---------------------------------------------------------------------
      1          8           0        0.000000    0.000000    2.895125
      2          8           0        0.000000    0.000000    4.247505
      3          8           0        0.000000    0.000000   -4.247505
      4          8           0        0.000000    0.000000   -2.895125
 ---------------------------------------------------------------------

 SCF Done:  E(UHF) =  -298.965219644     A.U. after   10 cycles
 E2 =    -0.1290123084D+01 EUMP2 =    -0.30025534272824D+03
 CCSD(T)
 CCSD(T)= -0.30014693329D+03

 The electronic state is 3-SGG.
 Alpha  occ. eigenvalues --  -20.23646 -20.23646 -20.22163 -20.22163  -1.08713
 Alpha  occ. eigenvalues --   -1.08713  -0.72375  -0.72374  -0.27240  -0.27240
 Alpha  occ. eigenvalues --   -0.27240  -0.27240  -0.21685  -0.21683  -0.06377
 Alpha  occ. eigenvalues --   -0.06377  -0.06377  -0.06377
 Alpha virt. eigenvalues --    0.70309   0.70350   1.10622   1.10684   1.11520
 Alpha virt. eigenvalues --    1.11520   1.11521   1.11521   1.15522   1.15570
 Alpha virt. eigenvalues --    1.20099   1.20099   1.20102   1.20102   1.33621

  Beta  occ. eigenvalues --  -20.20320 -20.20320 -20.19406 -20.19406  -1.00638
  Beta  occ. eigenvalues --   -1.00634  -0.61046  -0.60999  -0.19166  -0.19160
  Beta  occ. eigenvalues --   -0.12748  -0.12748  -0.12596  -0.12596   0.23118
  Beta  occ. eigenvalues --    0.23118
  Beta virt. eigenvalues --    0.30798   0.30798   0.73484   0.73534   1.12489
  Beta virt. eigenvalues --    1.12549   1.16395   1.16443   1.16443   1.16445
  Beta virt. eigenvalues --    1.16445   1.16457   1.25418   1.25418   1.25421

 Mulliken charges and spin densities:
               1          2
     1  O   -0.453367   0.560991
     2  O   -0.546633   0.439009
     3  O   -0.546633   0.439009
     4  O   -0.453367   0.560991
 Sum of Mulliken charges =  -2.00000   2.00000

 Dipole moment (field-independent basis, Debye):
    X=             -0.0000    Y=             -0.0000    Z=             -0.0000  Tot=              0.0000
 Quadrupole moment (field-independent basis, Debye-Ang):
   XX=            -24.9417   YY=            -24.9417   ZZ=           -157.7833
   XY=              0.0000   XZ=              0.0000   YZ=              0.0000

 Normal termination of Gaussian 16 at Sun Jan  1 01:47:04 2023.
