 Gaussian 16, Revision A.03,
 Gaussian 16:  ES64L-G16RevA.03 25-Dec-2016

 -------------------------------------
 #p CCSD(T)/cc-pVTZ Guess=Read SCF=XQC
 -------------------------------------

 --------
 O2_O2_34
 --------
 Symbolic Z-matrix:
 Charge = -2 Multiplicity = 3

                         Standard orientation:
 ---------------------------------------------------------------------
 Center     Atomic      Atomic             Coordinates (Angstroms)
 Number     Number       Type             X           Y           Z
 ---------------------------------------------------------------------
      1          8           0        0.000000    0.000000    1.033272
      2          8           0        0.000000    0.000000    2.385652
      3          8           0        0.000000    0.000000   -2.385652
      4          8           0        0.000000    0.000000   -1.033272
 ---------------------------------------------------------------------

 SCF Done:  E(UHF) =  -298.966358577     A.U. after   12 cycles
 E2 =    -0.1042929732D+01 EUMP2 =    -0.30000928830917D+03
 CCSD(T)
 CCSD(T)= -0.30004671134D+03

 The electronic state is 3-SGG.
 Alpha  occ. eigenvalues --  -20.20107 -20.20106 -20.11037 -20.11037  -1.03178
 Alpha  occ. eigenvalues --   -1.01793  -0.66979  -0.62649  -0.22255  -0.22255
 Alpha  occ. eigenvalues --   -0.20251  -0.20251  -0.18373  -0.09301   0.00788
 Alpha  occ. eigenvalues --    0.00788   0.02487   0.02487
 Alpha virt. eigenvalues --    0.77297   0.84579   1.14488   1.14488   1.16457
 Alpha virt. eigenvalues --    1.18281   1.20642   1.20642   1.24523   1.24523
 Alpha virt. eigenvalues --    1.37407   1.38776   1.38848   1.38848   1.41958

  Beta  occ. eigenvalues --  -20.15333 -20.15326 -20.09464 -20.09464  -0.93971
  Beta  occ. eigenvalues --   -0.92750  -0.57226  -0.50403  -0.16015  -0.07030
  Beta  occ. eigenvalues --   -0.07030  -0.05897  -0.04513  -0.04513   0.22865
  Beta  occ. eigenvalues --    0.22865
  Beta virt. eigenvalues --    0.47758   0.47758   0.81128   0.88485   1.17811
  Beta virt. eigenvalues --    1.18606   1.21667   1.21667   1.24302   1.24302
  Beta virt. eigenvalues --    1.28693   1.28693   1.39062   1.39093   1.42456

 Mulliken charges and spin densities:
               1          2
     1  O   -0.271316   0.799681
     2  O   -0.728684   0.200319
     3  O   -0.728684   0.200319
     4  O   -0.271316   0.799681
 Sum of Mulliken charges =  -2.00000   2.00000

 Dipole moment (field-independent basis, Debye):
    X=             -0.0000    Y=              0.0000    Z=              0.0000  Tot=              0.0000
 Quadrupole moment (field-independent basis, Debye-Ang):
   XX=            -25.1192   YY=            -25.1192   ZZ=            -68.7222
   XY=              0.0000   XZ=              0.0000   YZ=              0.0000

 Normal termination of Gaussian 16 at Sat Dec 31 20:25:18 2022.
