 Gaussian 16, Revision A.03,
 Gaussian 16:  ES64L-G16RevA.03 25-Dec-2016

 -------------------------------------
 #p CCSD(T)/cc-pVTZ Guess=Read SCF=XQC
 -------------------------------------

 ---------
 O2_O2_167
 ---------
 Symbolic Z-matrix:
 Charge = -2 Multiplicity = 3

                         Standard orientation:
 ---------------------------------------------------------------------
 Center     Atomic      Atomic             Coordinates (Angstroms)
 Number     Number       Type             X           Y           Z
 ---------------------------------------------------------------------
      1          8           0        0.000000    0.000000    1.974817
      2          8           0        0.000000    0.000000    3.327197
      3          8           0        0.000000    0.000000   -3.327197
      4          8           0        0.000000    0.000000   -1.974817
 ---------------------------------------------------------------------

 SCF Done:  E(UHF) =  -298.955011473     A.U. after   11 cycles
 E2 =    -0.1186711812D+01 EUMP2 =    -0.30014172328490D+03
 CCSD(T)
 CCSD(T)= -0.30011378054D+03

 The electronic state is 3-SGG.
 Alpha  occ. eigenvalues --  -20.21721 -20.21720 -20.18905 -20.18905  -1.06209
 Alpha  occ. eigenvalues --   -1.06204  -0.69743  -0.69698  -0.24766  -0.24766
 Alpha  occ. eigenvalues --   -0.24746  -0.24746  -0.19140  -0.18899  -0.03750
 Alpha  occ. eigenvalues --   -0.03750  -0.03708  -0.03708
 Alpha virt. eigenvalues --    0.70952   0.75007   1.08750   1.13820   1.13820
 Alpha virt. eigenvalues --    1.14220   1.14220   1.14642   1.16226   1.22179
 Alpha virt. eigenvalues --    1.22179   1.23278   1.23278   1.26318   1.36075

  Beta  occ. eigenvalues --  -20.18146 -20.18145 -20.16394 -20.16394  -0.98083
  Beta  occ. eigenvalues --   -0.98055  -0.58492  -0.58279  -0.16635  -0.16321
  Beta  occ. eigenvalues --   -0.10367  -0.10367  -0.09964  -0.09964   0.24187
  Beta  occ. eigenvalues --    0.24187
  Beta virt. eigenvalues --    0.35079   0.35079   0.73780   0.78525   1.10977
  Beta virt. eigenvalues --    1.15865   1.16963   1.18766   1.18766   1.19053
  Beta virt. eigenvalues --    1.19053   1.27498   1.27498   1.27592   1.28673

 Mulliken charges and spin densities:
               1          2
     1  O   -0.415017   0.612484
     2  O   -0.584983   0.387516
     3  O   -0.584983   0.387516
     4  O   -0.415017   0.612484
 Sum of Mulliken charges =  -2.00000   2.00000

 Dipole moment (field-independent basis, Debye):
    X=             -0.0000    Y=              0.0000    Z=             -0.0000  Tot=              0.0000
 Quadrupole moment (field-independent basis, Debye-Ang):
   XX=            -24.9608   YY=            -24.9608   ZZ=           -104.4228
   XY=              0.0000   XZ=              0.0000   YZ=              0.0000

 Normal termination of Gaussian 16 at Sat Dec 31 23:07:29 2022.
