 Gaussian 16, Revision A.03,
 Gaussian 16:  ES64L-G16RevA.03 25-Dec-2016

 -------------------------------------
 #p CCSD(T)/cc-pVTZ Guess=Read SCF=XQC
 -------------------------------------

 ---------
 O2_O2_153
 ---------
 Symbolic Z-matrix:
 Charge = -2 Multiplicity = 3

                         Standard orientation:
 ---------------------------------------------------------------------
 Center     Atomic      Atomic             Coordinates (Angstroms)
 Number     Number       Type             X           Y           Z
 ---------------------------------------------------------------------
      1          8           0        0.000000    0.000000    1.875707
      2          8           0        0.000000    0.000000    3.228087
      3          8           0        0.000000    0.000000   -3.228087
      4          8           0        0.000000    0.000000   -1.875707
 ---------------------------------------------------------------------

 SCF Done:  E(UHF) =  -298.954232786     A.U. after   11 cycles
 E2 =    -0.1174228166D+01 EUMP2 =    -0.30012846095255D+03
 CCSD(T)
 CCSD(T)= -0.30010889470D+03

 The electronic state is 3-SGG.
 Alpha  occ. eigenvalues --  -20.21500 -20.21500 -20.18398 -20.18398  -1.05867
 Alpha  occ. eigenvalues --   -1.05856  -0.69374  -0.69300  -0.24434  -0.24434
 Alpha  occ. eigenvalues --   -0.24400  -0.24400  -0.18815  -0.18453  -0.03380
 Alpha  occ. eigenvalues --   -0.03380  -0.03312  -0.03312
 Alpha virt. eigenvalues --    0.70807   0.75887   1.07755   1.14036   1.14036
 Alpha virt. eigenvalues --    1.14686   1.14686   1.14986   1.16336   1.22259
 Alpha virt. eigenvalues --    1.22259   1.24012   1.24012   1.30583   1.36419

  Beta  occ. eigenvalues --  -20.17871 -20.17870 -20.15935 -20.15935  -0.97718
  Beta  occ. eigenvalues --   -0.97680  -0.58139  -0.57859  -0.16316  -0.15852
  Beta  occ. eigenvalues --   -0.10040  -0.10040  -0.09575  -0.09575   0.24297
  Beta  occ. eigenvalues --    0.24297
  Beta virt. eigenvalues --    0.35773   0.35773   0.73552   0.79485   1.10034
  Beta virt. eigenvalues --    1.16151   1.17092   1.19026   1.19026   1.19478
  Beta virt. eigenvalues --    1.19478   1.27555   1.27555   1.29445   1.29445

 Mulliken charges and spin densities:
               1          2
     1  O   -0.408008   0.622482
     2  O   -0.591992   0.377518
     3  O   -0.591992   0.377518
     4  O   -0.408008   0.622482
 Sum of Mulliken charges =  -2.00000   2.00000

 Dipole moment (field-independent basis, Debye):
    X=             -0.0000    Y=             -0.0000    Z=              0.0000  Tot=              0.0000
 Quadrupole moment (field-independent basis, Debye-Ang):
   XX=            -24.9675   YY=            -24.9675   ZZ=            -99.7149
   XY=              0.0000   XZ=              0.0000   YZ=              0.0000

 Normal termination of Gaussian 16 at Sat Dec 31 22:50:26 2022.
