 Gaussian 16, Revision A.03,
 Gaussian 16:  ES64L-G16RevA.03 25-Dec-2016

 -------------------------------------
 #p CCSD(T)/cc-pVTZ Guess=Read SCF=XQC
 -------------------------------------

 --------
 O2_O2_42
 --------
 Symbolic Z-matrix:
 Charge = -2 Multiplicity = 3

                         Standard orientation:
 ---------------------------------------------------------------------
 Center     Atomic      Atomic             Coordinates (Angstroms)
 Number     Number       Type             X           Y           Z
 ---------------------------------------------------------------------
      1          8           0        0.000000    0.000000    1.089906
      2          8           0        0.000000    0.000000    2.442286
      3          8           0        0.000000    0.000000   -2.442286
      4          8           0        0.000000    0.000000   -1.089906
 ---------------------------------------------------------------------

 SCF Done:  E(UHF) =  -298.966576078     A.U. after   12 cycles
 E2 =    -0.1051826819D+01 EUMP2 =    -0.30001840289674D+03
 CCSD(T)
 CCSD(T)= -0.30005415926D+03

 The electronic state is 3-SGG.
 Alpha  occ. eigenvalues --  -20.20263 -20.20262 -20.11823 -20.11823  -1.03233
 Alpha  occ. eigenvalues --   -1.02248  -0.66846  -0.63553  -0.22240  -0.22240
 Alpha  occ. eigenvalues --   -0.20728  -0.20728  -0.17996  -0.10715   0.00416
 Alpha  occ. eigenvalues --    0.00416   0.01808   0.01808
 Alpha virt. eigenvalues --    0.76792   0.83712   1.14021   1.14021   1.16260
 Alpha virt. eigenvalues --    1.18220   1.20140   1.20140   1.23929   1.23929
 Alpha virt. eigenvalues --    1.34434   1.37686   1.37686   1.38699   1.40397

  Beta  occ. eigenvalues --  -20.15594 -20.15588 -20.10159 -20.10159  -0.94196
  Beta  occ. eigenvalues --   -0.93274  -0.56732  -0.51395  -0.15679  -0.07432
  Beta  occ. eigenvalues --   -0.07190  -0.07190  -0.05026  -0.05026   0.23305
  Beta  occ. eigenvalues --    0.23305
  Beta virt. eigenvalues --    0.46350   0.46350   0.80524   0.87627   1.17523
  Beta virt. eigenvalues --    1.18588   1.21087   1.21087   1.23909   1.23909
  Beta virt. eigenvalues --    1.28067   1.28067   1.36477   1.39016   1.40763

 Mulliken charges and spin densities:
               1          2
     1  O   -0.288382   0.782468
     2  O   -0.711618   0.217532
     3  O   -0.711618   0.217532
     4  O   -0.288382   0.782468
 Sum of Mulliken charges =  -2.00000   2.00000

 Dipole moment (field-independent basis, Debye):
    X=             -0.0000    Y=             -0.0000    Z=              0.0000  Tot=              0.0000
 Quadrupole moment (field-independent basis, Debye-Ang):
   XX=            -25.1137   YY=            -25.1137   ZZ=            -70.1948
   XY=              0.0000   XZ=              0.0000   YZ=              0.0000

 Normal termination of Gaussian 16 at Sat Dec 31 20:34:51 2022.
