 Gaussian 16, Revision A.03,
 Gaussian 16:  ES64L-G16RevA.03 25-Dec-2016

 -------------------------------------
 #p CCSD(T)/cc-pVTZ Guess=Read SCF=XQC
 -------------------------------------

 --------
 O2_O2_94
 --------
 Symbolic Z-matrix:
 Charge = -2 Multiplicity = 3

                         Standard orientation:
 ---------------------------------------------------------------------
 Center     Atomic      Atomic             Coordinates (Angstroms)
 Number     Number       Type             X           Y           Z
 ---------------------------------------------------------------------
      1          8           0        0.000000    0.000000    1.458029
      2          8           0        0.000000    0.000000    2.810409
      3          8           0        0.000000    0.000000   -2.810409
      4          8           0        0.000000    0.000000   -1.458029
 ---------------------------------------------------------------------

 SCF Done:  E(UHF) =  -298.955949541     A.U. after   11 cycles
 E2 =    -0.1114155973D+01 EUMP2 =    -0.30007010551350D+03
 CCSD(T)
 CCSD(T)= -0.30008434590D+03

 The electronic state is 3-SGG.
 Alpha  occ. eigenvalues --  -20.20773 -20.20773 -20.15642 -20.15642  -1.04348
 Alpha  occ. eigenvalues --   -1.04233  -0.67718  -0.67155  -0.23032  -0.23032
 Alpha  occ. eigenvalues --   -0.22774  -0.22774  -0.17627  -0.15828  -0.01606
 Alpha  occ. eigenvalues --   -0.01606  -0.01229  -0.01229
 Alpha virt. eigenvalues --    0.72963   0.79662   1.11639   1.13934   1.13934
 Alpha virt. eigenvalues --    1.15641   1.17274   1.17274   1.17765   1.22146
 Alpha virt. eigenvalues --    1.22146   1.29710   1.29710   1.37750   1.38225

  Beta  occ. eigenvalues --  -20.16741 -20.16738 -20.13490 -20.13490  -0.95955
  Beta  occ. eigenvalues --   -0.95777  -0.56650  -0.55478  -0.15210  -0.13017
  Beta  occ. eigenvalues --   -0.08528  -0.08528  -0.07575  -0.07575   0.24468
  Beta  occ. eigenvalues --    0.24468
  Beta virt. eigenvalues --    0.39843   0.39843   0.75940   0.83498   1.13596
  Beta virt. eigenvalues --    1.16740   1.18686   1.19689   1.19689   1.21668
  Beta virt. eigenvalues --    1.21668   1.26930   1.26930   1.35514   1.35514

 Mulliken charges and spin densities:
               1          2
     1  O   -0.364022   0.686244
     2  O   -0.635978   0.313756
     3  O   -0.635978   0.313756
     4  O   -0.364022   0.686244
 Sum of Mulliken charges =  -2.00000   2.00000

 Dipole moment (field-independent basis, Debye):
    X=             -0.0000    Y=              0.0000    Z=             -0.0000  Tot=              0.0000
 Quadrupole moment (field-independent basis, Debye-Ang):
   XX=            -25.0263   YY=            -25.0263   ZZ=            -82.2183
   XY=              0.0000   XZ=              0.0000   YZ=              0.0000

 Normal termination of Gaussian 16 at Sat Dec 31 21:37:03 2022.
