 Gaussian 16, Revision A.03,
 Gaussian 16:  ES64L-G16RevA.03 25-Dec-2016

 -------------------------------------
 #p CCSD(T)/cc-pVTZ Guess=Read SCF=XQC
 -------------------------------------

 --------
 O2_O2_27
 --------
 Symbolic Z-matrix:
 Charge = -2 Multiplicity = 3

                         Standard orientation:
 ---------------------------------------------------------------------
 Center     Atomic      Atomic             Coordinates (Angstroms)
 Number     Number       Type             X           Y           Z
 ---------------------------------------------------------------------
      1          8           0        0.000000    0.000000    0.983716
      2          8           0        0.000000    0.000000    2.336097
      3          8           0        0.000000    0.000000   -2.336097
      4          8           0        0.000000    0.000000   -0.983716
 ---------------------------------------------------------------------

 SCF Done:  E(UHF) =  -298.964103451     A.U. after   12 cycles
 E2 =    -0.1035861479D+01 EUMP2 =    -0.29999996492945D+03
 CCSD(T)
 CCSD(T)= -0.30003832555D+03

 The electronic state is 3-SGG.
 Alpha  occ. eigenvalues --  -20.19937 -20.19936 -20.10283 -20.10283  -1.03205
 Alpha  occ. eigenvalues --   -1.01331  -0.67235  -0.61733  -0.22341  -0.22341
 Alpha  occ. eigenvalues --   -0.19768  -0.19768  -0.18813  -0.07805   0.01130
 Alpha  occ. eigenvalues --    0.01130   0.03152   0.03152
 Alpha virt. eigenvalues --    0.77717   0.85449   1.14999   1.14999   1.16652
 Alpha virt. eigenvalues --    1.18320   1.21107   1.21107   1.25136   1.25136
 Alpha virt. eigenvalues --    1.38397   1.38815   1.39813   1.39813   1.44589

  Beta  occ. eigenvalues --  -20.15076 -20.15068 -20.08791 -20.08791  -0.93822
  Beta  occ. eigenvalues --   -0.92245  -0.57885  -0.49414  -0.16377  -0.06921
  Beta  occ. eigenvalues --   -0.06921  -0.04277  -0.04020  -0.04020   0.22388
  Beta  occ. eigenvalues --    0.22388
  Beta virt. eigenvalues --    0.49104   0.49104   0.81628   0.89337   1.18123
  Beta virt. eigenvalues --    1.18593   1.22221   1.22221   1.24671   1.24671
  Beta virt. eigenvalues --    1.29384   1.29384   1.39065   1.39664   1.45231

 Mulliken charges and spin densities:
               1          2
     1  O   -0.254865   0.814563
     2  O   -0.745135   0.185437
     3  O   -0.745135   0.185437
     4  O   -0.254865   0.814563
 Sum of Mulliken charges =  -2.00000   2.00000

 Dipole moment (field-independent basis, Debye):
    X=             -0.0000    Y=             -0.0000    Z=             -0.0000  Tot=              0.0000
 Quadrupole moment (field-independent basis, Debye-Ang):
   XX=            -25.1176   YY=            -25.1176   ZZ=            -67.5499
   XY=              0.0000   XZ=              0.0000   YZ=              0.0000

 Normal termination of Gaussian 16 at Sat Dec 31 20:17:03 2022.
