 Gaussian 16, Revision A.03,
 Gaussian 16:  ES64L-G16RevA.03 25-Dec-2016

 -------------------------------------
 #p CCSD(T)/cc-pVTZ Guess=Read SCF=XQC
 -------------------------------------

 ---------
 O2_O2_228
 ---------
 Symbolic Z-matrix:
 Charge = -2 Multiplicity = 3

                         Standard orientation:
 ---------------------------------------------------------------------
 Center     Atomic      Atomic             Coordinates (Angstroms)
 Number     Number       Type             X           Y           Z
 ---------------------------------------------------------------------
      1          8           0        0.000000    0.000000    2.406654
      2          8           0        0.000000    0.000000    3.759034
      3          8           0        0.000000    0.000000   -3.759034
      4          8           0        0.000000    0.000000   -2.406654
 ---------------------------------------------------------------------

 SCF Done:  E(UHF) =  -298.959864422     A.U. after   11 cycles
 E2 =    -0.1236938506D+01 EUMP2 =    -0.30019680292840D+03
 CCSD(T)
 CCSD(T)= -0.30013170667D+03

 The electronic state is 3-SGG.
 Alpha  occ. eigenvalues --  -20.22700 -20.22700 -20.20698 -20.20698  -1.07540
 Alpha  occ. eigenvalues --   -1.07539  -0.71152  -0.71148  -0.26074  -0.26074
 Alpha  occ. eigenvalues --   -0.26073  -0.26073  -0.20471  -0.20441  -0.05158
 Alpha  occ. eigenvalues --   -0.05158  -0.05154  -0.05154
 Alpha virt. eigenvalues --    0.71224   0.72004   1.11286   1.12448   1.12669
 Alpha virt. eigenvalues --    1.12669   1.12701   1.12701   1.16357   1.17649
 Alpha virt. eigenvalues --    1.21258   1.21258   1.21350   1.21350   1.34774

  Beta  occ. eigenvalues --  -20.19278 -20.19277 -20.18041 -20.18040  -0.99453
  Beta  occ. eigenvalues --   -0.99443  -0.59853  -0.59767  -0.17954  -0.17906
  Beta  occ. eigenvalues --   -0.11628  -0.11628  -0.11387  -0.11387   0.23654
  Beta  occ. eigenvalues --    0.23654
  Beta virt. eigenvalues --    0.32703   0.32703   0.74343   0.75258   1.13219
  Beta virt. eigenvalues --    1.14127   1.17180   1.17579   1.17579   1.17606
  Beta virt. eigenvalues --    1.17606   1.18669   1.26587   1.26587   1.26683

 Mulliken charges and spin densities:
               1          2
     1  O   -0.437377   0.581837
     2  O   -0.562623   0.418163
     3  O   -0.562623   0.418163
     4  O   -0.437377   0.581837
 Sum of Mulliken charges =  -2.00000   2.00000

 Dipole moment (field-independent basis, Debye):
    X=             -0.0000    Y=              0.0000    Z=             -0.0000  Tot=              0.0000
 Quadrupole moment (field-independent basis, Debye-Ang):
   XX=            -24.9467   YY=            -24.9467   ZZ=           -127.3202
   XY=              0.0000   XZ=              0.0000   YZ=              0.0000

 Normal termination of Gaussian 16 at Sun Jan  1 00:23:09 2023.
