 Gaussian 16, Revision A.03,
 Gaussian 16:  ES64L-G16RevA.03 25-Dec-2016

 -------------------------------------
 #p CCSD(T)/cc-pVTZ Guess=Read SCF=XQC
 -------------------------------------

 ---------
 O2_O2_270
 ---------
 Symbolic Z-matrix:
 Charge = -2 Multiplicity = 3

                         Standard orientation:
 ---------------------------------------------------------------------
 Center     Atomic      Atomic             Coordinates (Angstroms)
 Number     Number       Type             X           Y           Z
 ---------------------------------------------------------------------
      1          8           0        0.000000    0.000000    2.703984
      2          8           0        0.000000    0.000000    4.056364
      3          8           0        0.000000    0.000000   -4.056364
      4          8           0        0.000000    0.000000   -2.703984
 ---------------------------------------------------------------------

 SCF Done:  E(UHF) =  -298.963249852     A.U. after   11 cycles
 E2 =    -0.1269525959D+01 EUMP2 =    -0.30023277581048D+03
 CCSD(T)
 CCSD(T)= -0.30014149279D+03

 The electronic state is 3-SGG.
 Alpha  occ. eigenvalues --  -20.23302 -20.23302 -20.21645 -20.21645  -1.08292
 Alpha  occ. eigenvalues --   -1.08292  -0.71938  -0.71937  -0.26821  -0.26821
 Alpha  occ. eigenvalues --   -0.26821  -0.26821  -0.21248  -0.21243  -0.05942
 Alpha  occ. eigenvalues --   -0.05942  -0.05941  -0.05941
 Alpha virt. eigenvalues --    0.70715   0.70863   1.10997   1.11218   1.11936
 Alpha virt. eigenvalues --    1.11936   1.11940   1.11940   1.15937   1.16129
 Alpha virt. eigenvalues --    1.20525   1.20525   1.20536   1.20536   1.34034

  Beta  occ. eigenvalues --  -20.19944 -20.19943 -20.18921 -20.18921  -1.00214
  Beta  occ. eigenvalues --   -1.00208  -0.60619  -0.60560  -0.18730  -0.18717
  Beta  occ. eigenvalues --   -0.12344  -0.12344  -0.12164  -0.12164   0.23314
  Beta  occ. eigenvalues --    0.23314
  Beta virt. eigenvalues --    0.31472   0.31472   0.73884   0.74058   1.12863
  Beta virt. eigenvalues --    1.13051   1.16808   1.16854   1.16854   1.16859
  Beta virt. eigenvalues --    1.16859   1.17039   1.25847   1.25847   1.25859

 Mulliken charges and spin densities:
               1          2
     1  O   -0.447929   0.568046
     2  O   -0.552071   0.431954
     3  O   -0.552071   0.431954
     4  O   -0.447929   0.568046
 Sum of Mulliken charges =  -2.00000   2.00000

 Dipole moment (field-independent basis, Debye):
    X=             -0.0000    Y=              0.0000    Z=              0.0000  Tot=              0.0000
 Quadrupole moment (field-independent basis, Debye-Ang):
   XX=            -24.9432   YY=            -24.9432   ZZ=           -145.2917
   XY=              0.0000   XZ=              0.0000   YZ=              0.0000

 Normal termination of Gaussian 16 at Sun Jan  1 01:14:35 2023.
