 Gaussian 16, Revision A.03,
 Gaussian 16:  ES64L-G16RevA.03 25-Dec-2016

 -------------------------------------
 #p CCSD(T)/cc-pVTZ Guess=Read SCF=XQC
 -------------------------------------

 --------
 O2_O2_47
 --------
 Symbolic Z-matrix:
 Charge = -2 Multiplicity = 3

                         Standard orientation:
 ---------------------------------------------------------------------
 Center     Atomic      Atomic             Coordinates (Angstroms)
 Number     Number       Type             X           Y           Z
 ---------------------------------------------------------------------
      1          8           0        0.000000    0.000000    1.125302
      2          8           0        0.000000    0.000000    2.477682
      3          8           0        0.000000    0.000000   -2.477682
      4          8           0        0.000000    0.000000   -1.125302
 ---------------------------------------------------------------------

 SCF Done:  E(UHF) =  -298.965952433     A.U. after   12 cycles
 E2 =    -0.1057679972D+01 EUMP2 =    -0.30002363240556D+03
 CCSD(T)
 CCSD(T)= -0.30005805885D+03

 The electronic state is 3-SGG.
 Alpha  occ. eigenvalues --  -20.20342 -20.20341 -20.12279 -20.12279  -1.03299
 Alpha  occ. eigenvalues --   -1.02501  -0.66828  -0.64050  -0.22263  -0.22263
 Alpha  occ. eigenvalues --   -0.20992  -0.20992  -0.17820  -0.11470   0.00192
 Alpha  occ. eigenvalues --    0.00192   0.01423   0.01423
 Alpha virt. eigenvalues --    0.76467   0.83223   1.13805   1.13805   1.16149
 Alpha virt. eigenvalues --    1.18166   1.19839   1.19839   1.23609   1.23609
 Alpha virt. eigenvalues --    1.31936   1.36934   1.36934   1.38637   1.39982

  Beta  occ. eigenvalues --  -20.15739 -20.15734 -20.10560 -20.10560  -0.94354
  Beta  occ. eigenvalues --   -0.93576  -0.56532  -0.51948  -0.15513  -0.08254
  Beta  occ. eigenvalues --   -0.07304  -0.07304  -0.05324  -0.05324   0.23530
  Beta  occ. eigenvalues --    0.23530
  Beta virt. eigenvalues --    0.45536   0.45536   0.80132   0.87139   1.17370
  Beta virt. eigenvalues --    1.18553   1.20774   1.20774   1.23675   1.23675
  Beta virt. eigenvalues --    1.27756   1.27756   1.34018   1.38969   1.40407

 Mulliken charges and spin densities:
               1          2
     1  O   -0.298196   0.771807
     2  O   -0.701804   0.228193
     3  O   -0.701804   0.228193
     4  O   -0.298196   0.771807
 Sum of Mulliken charges =  -2.00000   2.00000

 Dipole moment (field-independent basis, Debye):
    X=             -0.0000    Y=              0.0000    Z=             -0.0000  Tot=              0.0000
 Quadrupole moment (field-independent basis, Debye-Ang):
   XX=            -25.1075   YY=            -25.1075   ZZ=            -71.1784
   XY=              0.0000   XZ=              0.0000   YZ=              0.0000

 Normal termination of Gaussian 16 at Sat Dec 31 20:40:36 2022.
