 Gaussian 16, Revision A.03,
 Gaussian 16:  ES64L-G16RevA.03 25-Dec-2016

 -------------------------------------
 #p CCSD(T)/cc-pVTZ Guess=Read SCF=XQC
 -------------------------------------

 ---------
 O2_O2_272
 ---------
 Symbolic Z-matrix:
 Charge = -2 Multiplicity = 3

                         Standard orientation:
 ---------------------------------------------------------------------
 Center     Atomic      Atomic             Coordinates (Angstroms)
 Number     Number       Type             X           Y           Z
 ---------------------------------------------------------------------
      1          8           0        0.000000    0.000000    2.718142
      2          8           0        0.000000    0.000000    4.070523
      3          8           0        0.000000    0.000000   -4.070523
      4          8           0        0.000000    0.000000   -2.718142
 ---------------------------------------------------------------------

 SCF Done:  E(UHF) =  -298.963401688     A.U. after   11 cycles
 E2 =    -0.1271058719D+01 EUMP2 =    -0.30023446040700D+03
 CCSD(T)
 CCSD(T)= -0.30014191674D+03

 The electronic state is 3-SGG.
 Alpha  occ. eigenvalues --  -20.23328 -20.23328 -20.21685 -20.21685  -1.08325
 Alpha  occ. eigenvalues --   -1.08325  -0.71972  -0.71971  -0.26853  -0.26853
 Alpha  occ. eigenvalues --   -0.26853  -0.26853  -0.21282  -0.21278  -0.05976
 Alpha  occ. eigenvalues --   -0.05976  -0.05975  -0.05975
 Alpha virt. eigenvalues --    0.70685   0.70820   1.10971   1.11173   1.11904
 Alpha virt. eigenvalues --    1.11904   1.11908   1.11908   1.15907   1.16082
 Alpha virt. eigenvalues --    1.20492   1.20492   1.20502   1.20502   1.34002

  Beta  occ. eigenvalues --  -20.19973 -20.19973 -20.18959 -20.18959  -1.00247
  Beta  occ. eigenvalues --   -1.00241  -0.60652  -0.60595  -0.18764  -0.18751
  Beta  occ. eigenvalues --   -0.12375  -0.12375  -0.12198  -0.12198   0.23299
  Beta  occ. eigenvalues --    0.23299
  Beta virt. eigenvalues --    0.31419   0.31419   0.73855   0.74015   1.12836
  Beta virt. eigenvalues --    1.13009   1.16779   1.16822   1.16822   1.16827
  Beta virt. eigenvalues --    1.16827   1.16989   1.25814   1.25814   1.25825

 Mulliken charges and spin densities:
               1          2
     1  O   -0.448364   0.567482
     2  O   -0.551636   0.432518
     3  O   -0.551636   0.432518
     4  O   -0.448364   0.567482
 Sum of Mulliken charges =  -2.00000   2.00000

 Dipole moment (field-independent basis, Debye):
    X=             -0.0000    Y=              0.0000    Z=              0.0000  Tot=              0.0000
 Quadrupole moment (field-independent basis, Debye-Ang):
   XX=            -24.9430   YY=            -24.9430   ZZ=           -146.1920
   XY=              0.0000   XZ=              0.0000   YZ=              0.0000

 Normal termination of Gaussian 16 at Sun Jan  1 01:16:56 2023.
