 Gaussian 16, Revision A.03,
 Gaussian 16:  ES64L-G16RevA.03 25-Dec-2016

 -------------------------------------
 #p CCSD(T)/cc-pVTZ Guess=Read SCF=XQC
 -------------------------------------

 ---------
 O2_O2_285
 ---------
 Symbolic Z-matrix:
 Charge = -2 Multiplicity = 3

                         Standard orientation:
 ---------------------------------------------------------------------
 Center     Atomic      Atomic             Coordinates (Angstroms)
 Number     Number       Type             X           Y           Z
 ---------------------------------------------------------------------
      1          8           0        0.000000    0.000000    2.810173
      2          8           0        0.000000    0.000000    4.162554
      3          8           0        0.000000    0.000000   -4.162554
      4          8           0        0.000000    0.000000   -2.810173
 ---------------------------------------------------------------------

 SCF Done:  E(UHF) =  -298.964365512     A.U. after   10 cycles
 E2 =    -0.1280992540D+01 EUMP2 =    -0.30024535805121D+03
 CCSD(T)
 CCSD(T)= -0.30014458872D+03

 The electronic state is 3-SGG.
 Alpha  occ. eigenvalues --  -20.23497 -20.23497 -20.21941 -20.21941  -1.08532
 Alpha  occ. eigenvalues --   -1.08532  -0.72186  -0.72186  -0.27059  -0.27059
 Alpha  occ. eigenvalues --   -0.27059  -0.27059  -0.21497  -0.21494  -0.06190
 Alpha  occ. eigenvalues --   -0.06190  -0.06189  -0.06189
 Alpha virt. eigenvalues --    0.70490   0.70564   1.10794   1.10904   1.11700
 Alpha virt. eigenvalues --    1.11700   1.11702   1.11702   1.15709   1.15800
 Alpha virt. eigenvalues --    1.20283   1.20283   1.20288   1.20288   1.33799

  Beta  occ. eigenvalues --  -20.20158 -20.20157 -20.19197 -20.19197  -1.00455
  Beta  occ. eigenvalues --   -1.00450  -0.60862  -0.60810  -0.18978  -0.18969
  Beta  occ. eigenvalues --   -0.12573  -0.12573  -0.12410  -0.12410   0.23203
  Beta  occ. eigenvalues --    0.23203
  Beta virt. eigenvalues --    0.31087   0.31087   0.73664   0.73752   1.12658
  Beta virt. eigenvalues --    1.12758   1.16583   1.16621   1.16621   1.16623
  Beta virt. eigenvalues --    1.16623   1.16695   1.25603   1.25603   1.25609

 Mulliken charges and spin densities:
               1          2
     1  O   -0.451060   0.563983
     2  O   -0.548940   0.436017
     3  O   -0.548940   0.436017
     4  O   -0.451060   0.563983
 Sum of Mulliken charges =  -2.00000   2.00000

 Dipole moment (field-independent basis, Debye):
    X=             -0.0000    Y=             -0.0000    Z=              0.0000  Tot=              0.0000
 Quadrupole moment (field-independent basis, Debye-Ang):
   XX=            -24.9423   YY=            -24.9423   ZZ=           -152.1413
   XY=              0.0000   XZ=              0.0000   YZ=              0.0000

 Normal termination of Gaussian 16 at Sun Jan  1 01:32:40 2023.
