 Gaussian 16, Revision A.03,
 Gaussian 16:  ES64L-G16RevA.03 25-Dec-2016

 -------------------------------------
 #p CCSD(T)/cc-pVTZ Guess=Read SCF=XQC
 -------------------------------------

 ---------
 O2_O2_241
 ---------
 Symbolic Z-matrix:
 Charge = -2 Multiplicity = 3

                         Standard orientation:
 ---------------------------------------------------------------------
 Center     Atomic      Atomic             Coordinates (Angstroms)
 Number     Number       Type             X           Y           Z
 ---------------------------------------------------------------------
      1          8           0        0.000000    0.000000    2.498685
      2          8           0        0.000000    0.000000    3.851065
      3          8           0        0.000000    0.000000   -3.851065
      4          8           0        0.000000    0.000000   -2.498685
 ---------------------------------------------------------------------

 SCF Done:  E(UHF) =  -298.960947590     A.U. after   11 cycles
 E2 =    -0.1247124251D+01 EUMP2 =    -0.30020807184072D+03
 CCSD(T)
 CCSD(T)= -0.30013492808D+03

 The electronic state is 3-SGG.
 Alpha  occ. eigenvalues --  -20.22895 -20.22895 -20.21012 -20.21012  -1.07786
 Alpha  occ. eigenvalues --   -1.07786  -0.71410  -0.71408  -0.26319  -0.26319
 Alpha  occ. eigenvalues --   -0.26318  -0.26318  -0.20725  -0.20707  -0.05415
 Alpha  occ. eigenvalues --   -0.05415  -0.05413  -0.05413
 Alpha virt. eigenvalues --    0.71101   0.71587   1.11275   1.12002   1.12431
 Alpha virt. eigenvalues --    1.12431   1.12449   1.12449   1.16283   1.17027
 Alpha virt. eigenvalues --    1.21025   1.21025   1.21074   1.21074   1.34531

  Beta  occ. eigenvalues --  -20.19495 -20.19494 -20.18332 -20.18332  -0.99703
  Beta  occ. eigenvalues --   -0.99695  -0.60104  -0.60029  -0.18207  -0.18175
  Beta  occ. eigenvalues --   -0.11862  -0.11862  -0.11643  -0.11643   0.23544
  Beta  occ. eigenvalues --    0.23544
  Beta virt. eigenvalues --    0.32294   0.32294   0.74244   0.74815   1.13171
  Beta virt. eigenvalues --    1.13750   1.17131   1.17344   1.17344   1.17359
  Beta virt. eigenvalues --    1.17359   1.17997   1.26351   1.26351   1.26404

 Mulliken charges and spin densities:
               1          2
     1  O   -0.440963   0.577122
     2  O   -0.559037   0.422878
     3  O   -0.559037   0.422878
     4  O   -0.440963   0.577122
 Sum of Mulliken charges =  -2.00000   2.00000

 Dipole moment (field-independent basis, Debye):
    X=             -0.0000    Y=             -0.0000    Z=              0.0000  Tot=              0.0000
 Quadrupole moment (field-independent basis, Debye-Ang):
   XX=            -24.9454   YY=            -24.9454   ZZ=           -132.6920
   XY=              0.0000   XZ=              0.0000   YZ=              0.0000

 Normal termination of Gaussian 16 at Sun Jan  1 00:38:51 2023.
