 Gaussian 16, Revision A.03,
 Gaussian 16:  ES64L-G16RevA.03 25-Dec-2016

 -------------------------------------
 #p CCSD(T)/cc-pVTZ Guess=Read SCF=XQC
 -------------------------------------

 ---------
 O2_O2_244
 ---------
 Symbolic Z-matrix:
 Charge = -2 Multiplicity = 3

                         Standard orientation:
 ---------------------------------------------------------------------
 Center     Atomic      Atomic             Coordinates (Angstroms)
 Number     Number       Type             X           Y           Z
 ---------------------------------------------------------------------
      1          8           0        0.000000    0.000000    2.519923
      2          8           0        0.000000    0.000000    3.872303
      3          8           0        0.000000    0.000000   -3.872303
      4          8           0        0.000000    0.000000   -2.519923
 ---------------------------------------------------------------------

 SCF Done:  E(UHF) =  -298.961193791     A.U. after   11 cycles
 E2 =    -0.1249459984D+01 EUMP2 =    -0.30021065377512D+03
 CCSD(T)
 CCSD(T)= -0.30013564578D+03

 The electronic state is 3-SGG.
 Alpha  occ. eigenvalues --  -20.22939 -20.22939 -20.21082 -20.21082  -1.07841
 Alpha  occ. eigenvalues --   -1.07841  -0.71468  -0.71466  -0.26373  -0.26373
 Alpha  occ. eigenvalues --   -0.26372  -0.26372  -0.20782  -0.20766  -0.05473
 Alpha  occ. eigenvalues --   -0.05473  -0.05471  -0.05471
 Alpha virt. eigenvalues --    0.71066   0.71500   1.11259   1.11907   1.12378
 Alpha virt. eigenvalues --    1.12378   1.12393   1.12393   1.16258   1.16909
 Alpha virt. eigenvalues --    1.20971   1.20971   1.21014   1.21014   1.34476

  Beta  occ. eigenvalues --  -20.19543 -20.19543 -20.18396 -20.18396  -0.99759
  Beta  occ. eigenvalues --   -0.99751  -0.60160  -0.60087  -0.18264  -0.18235
  Beta  occ. eigenvalues --   -0.11914  -0.11914  -0.11700  -0.11700   0.23519
  Beta  occ. eigenvalues --    0.23519
  Beta virt. eigenvalues --    0.32204   0.32204   0.74214   0.74723   1.13149
  Beta virt. eigenvalues --    1.13668   1.17109   1.17291   1.17291   1.17304
  Beta virt. eigenvalues --    1.17304   1.17870   1.26297   1.26297   1.26343

 Mulliken charges and spin densities:
               1          2
     1  O   -0.441747   0.576097
     2  O   -0.558253   0.423903
     3  O   -0.558253   0.423903
     4  O   -0.441747   0.576097
 Sum of Mulliken charges =  -2.00000   2.00000

 Dipole moment (field-independent basis, Debye):
    X=             -0.0000    Y=             -0.0000    Z=              0.0000  Tot=              0.0000
 Quadrupole moment (field-independent basis, Debye-Ang):
   XX=            -24.9451   YY=            -24.9451   ZZ=           -133.9560
   XY=              0.0000   XZ=              0.0000   YZ=              0.0000

 Normal termination of Gaussian 16 at Sun Jan  1 00:42:33 2023.
