 Gaussian 16, Revision A.03,
 Gaussian 16:  ES64L-G16RevA.03 25-Dec-2016

 -------------------------------------
 #p CCSD(T)/cc-pVTZ Guess=Read SCF=XQC
 -------------------------------------

 --------
 O2_O2_54
 --------
 Symbolic Z-matrix:
 Charge = -2 Multiplicity = 3

                         Standard orientation:
 ---------------------------------------------------------------------
 Center     Atomic      Atomic             Coordinates (Angstroms)
 Number     Number       Type             X           Y           Z
 ---------------------------------------------------------------------
      1          8           0        0.000000    0.000000    1.174857
      2          8           0        0.000000    0.000000    2.527237
      3          8           0        0.000000    0.000000   -2.527237
      4          8           0        0.000000    0.000000   -1.174857
 ---------------------------------------------------------------------

 SCF Done:  E(UHF) =  -298.964546669     A.U. after   12 cycles
 E2 =    -0.1066102818D+01 EUMP2 =    -0.30003064948726D+03
 CCSD(T)
 CCSD(T)= -0.30006288003D+03

 The electronic state is 3-SGG.
 Alpha  occ. eigenvalues --  -20.20432 -20.20432 -20.12878 -20.12878  -1.03417
 Alpha  occ. eigenvalues --   -1.02822  -0.66863  -0.64674  -0.22325  -0.22325
 Alpha  occ. eigenvalues --   -0.21326  -0.21326  -0.17642  -0.12394  -0.00109
 Alpha  occ. eigenvalues --   -0.00109   0.00927   0.00927
 Alpha virt. eigenvalues --    0.75995   0.82591   1.13603   1.13603   1.16007
 Alpha virt. eigenvalues --    1.18052   1.19430   1.19430   1.23222   1.23222
 Alpha virt. eigenvalues --    1.28288   1.35853   1.35853   1.38536   1.39619

  Beta  occ. eigenvalues --  -20.15923 -20.15919 -20.11084 -20.11083  -0.94587
  Beta  occ. eigenvalues --   -0.93971  -0.56359  -0.52648  -0.15333  -0.09260
  Beta  occ. eigenvalues --   -0.07472  -0.07472  -0.05717  -0.05717   0.23793
  Beta  occ. eigenvalues --    0.23793
  Beta virt. eigenvalues --    0.44476   0.44476   0.79565   0.86503   1.17188
  Beta virt. eigenvalues --    1.18459   1.20413   1.20413   1.23358   1.23358
  Beta virt. eigenvalues --    1.27412   1.27412   1.30408   1.38886   1.40105

 Mulliken charges and spin densities:
               1          2
     1  O   -0.310863   0.757206
     2  O   -0.689137   0.242794
     3  O   -0.689137   0.242794
     4  O   -0.310863   0.757206
 Sum of Mulliken charges =  -2.00000   2.00000

 Dipole moment (field-independent basis, Debye):
    X=             -0.0000    Y=              0.0000    Z=             -0.0000  Tot=              0.0000
 Quadrupole moment (field-independent basis, Debye-Ang):
   XX=            -25.0965   YY=            -25.0965   ZZ=            -72.6281
   XY=              0.0000   XZ=              0.0000   YZ=              0.0000

 Normal termination of Gaussian 16 at Sat Dec 31 20:49:08 2022.
