 Gaussian 16, Revision A.03,
 Gaussian 16:  ES64L-G16RevA.03 25-Dec-2016

 -------------------------------------
 #p CCSD(T)/cc-pVTZ Guess=Read SCF=XQC
 -------------------------------------

 ---------
 O2_O2_295
 ---------
 Symbolic Z-matrix:
 Charge = -2 Multiplicity = 3

                         Standard orientation:
 ---------------------------------------------------------------------
 Center     Atomic      Atomic             Coordinates (Angstroms)
 Number     Number       Type             X           Y           Z
 ---------------------------------------------------------------------
      1          8           0        0.000000    0.000000    2.880967
      2          8           0        0.000000    0.000000    4.233347
      3          8           0        0.000000    0.000000   -4.233347
      4          8           0        0.000000    0.000000   -2.880967
 ---------------------------------------------------------------------

 SCF Done:  E(UHF) =  -298.965079639     A.U. after   10 cycles
 E2 =    -0.1288603660D+01 EUMP2 =    -0.30025368329902D+03
 CCSD(T)
 CCSD(T)= -0.30014655031D+03

 The electronic state is 3-SGG.
 Alpha  occ. eigenvalues --  -20.23622 -20.23622 -20.22127 -20.22127  -1.08684
 Alpha  occ. eigenvalues --   -1.08684  -0.72344  -0.72344  -0.27210  -0.27210
 Alpha  occ. eigenvalues --   -0.27210  -0.27210  -0.21654  -0.21652  -0.06347
 Alpha  occ. eigenvalues --   -0.06347  -0.06347  -0.06347
 Alpha virt. eigenvalues --    0.70339   0.70385   1.10651   1.10719   1.11550
 Alpha virt. eigenvalues --    1.11550   1.11551   1.11551   1.15553   1.15607
 Alpha virt. eigenvalues --    1.20129   1.20129   1.20132   1.20132   1.33650

  Beta  occ. eigenvalues --  -20.20294 -20.20293 -20.19372 -20.19372  -1.00608
  Beta  occ. eigenvalues --   -1.00604  -0.61016  -0.60968  -0.19136  -0.19129
  Beta  occ. eigenvalues --   -0.12719  -0.12719  -0.12566  -0.12566   0.23131
  Beta  occ. eigenvalues --    0.23131
  Beta virt. eigenvalues --    0.30845   0.30845   0.73514   0.73569   1.12517
  Beta virt. eigenvalues --    1.12583   1.16426   1.16472   1.16472   1.16474
  Beta virt. eigenvalues --    1.16474   1.16495   1.25448   1.25448   1.25452

 Mulliken charges and spin densities:
               1          2
     1  O   -0.452994   0.561475
     2  O   -0.547006   0.438525
     3  O   -0.547006   0.438525
     4  O   -0.452994   0.561475
 Sum of Mulliken charges =  -2.00000   2.00000

 Dipole moment (field-independent basis, Debye):
    X=             -0.0000    Y=             -0.0000    Z=              0.0000  Tot=              0.0000
 Quadrupole moment (field-independent basis, Debye-Ang):
   XX=            -24.9418   YY=            -24.9418   ZZ=           -156.8330
   XY=              0.0000   XZ=              0.0000   YZ=              0.0000

 Normal termination of Gaussian 16 at Sun Jan  1 01:44:38 2023.
