 Gaussian 16, Revision A.03,
 Gaussian 16:  ES64L-G16RevA.03 25-Dec-2016

 -------------------------------------
 #p CCSD(T)/cc-pVTZ Guess=Read SCF=XQC
 -------------------------------------

 ---------
 O2_O2_243
 ---------
 Symbolic Z-matrix:
 Charge = -2 Multiplicity = 3

                         Standard orientation:
 ---------------------------------------------------------------------
 Center     Atomic      Atomic             Coordinates (Angstroms)
 Number     Number       Type             X           Y           Z
 ---------------------------------------------------------------------
      1          8           0        0.000000    0.000000    2.512843
      2          8           0        0.000000    0.000000    3.865223
      3          8           0        0.000000    0.000000   -3.865223
      4          8           0        0.000000    0.000000   -2.512843
 ---------------------------------------------------------------------

 SCF Done:  E(UHF) =  -298.961111902     A.U. after   11 cycles
 E2 =    -0.1248681945D+01 EUMP2 =    -0.30020979384728D+03
 CCSD(T)
 CCSD(T)= -0.30013540759D+03

 The electronic state is 3-SGG.
 Alpha  occ. eigenvalues --  -20.22924 -20.22924 -20.21058 -20.21058  -1.07823
 Alpha  occ. eigenvalues --   -1.07823  -0.71449  -0.71447  -0.26355  -0.26355
 Alpha  occ. eigenvalues --   -0.26354  -0.26354  -0.20763  -0.20746  -0.05454
 Alpha  occ. eigenvalues --   -0.05454  -0.05452  -0.05452
 Alpha virt. eigenvalues --    0.71078   0.71529   1.11265   1.11938   1.12396
 Alpha virt. eigenvalues --    1.12396   1.12411   1.12411   1.16267   1.16948
 Alpha virt. eigenvalues --    1.20989   1.20989   1.21034   1.21034   1.34494

  Beta  occ. eigenvalues --  -20.19527 -20.19527 -20.18375 -20.18375  -0.99740
  Beta  occ. eigenvalues --   -0.99732  -0.60142  -0.60068  -0.18245  -0.18215
  Beta  occ. eigenvalues --   -0.11897  -0.11897  -0.11681  -0.11681   0.23528
  Beta  occ. eigenvalues --    0.23528
  Beta virt. eigenvalues --    0.32234   0.32234   0.74224   0.74754   1.13157
  Beta virt. eigenvalues --    1.13695   1.17117   1.17308   1.17308   1.17322
  Beta virt. eigenvalues --    1.17322   1.17911   1.26315   1.26315   1.26363

 Mulliken charges and spin densities:
               1          2
     1  O   -0.441487   0.576437
     2  O   -0.558513   0.423563
     3  O   -0.558513   0.423563
     4  O   -0.441487   0.576437
 Sum of Mulliken charges =  -2.00000   2.00000

 Dipole moment (field-independent basis, Debye):
    X=             -0.0000    Y=              0.0000    Z=              0.0000  Tot=              0.0000
 Quadrupole moment (field-independent basis, Debye-Ang):
   XX=            -24.9452   YY=            -24.9452   ZZ=           -133.5337
   XY=              0.0000   XZ=              0.0000   YZ=              0.0000

 Normal termination of Gaussian 16 at Sun Jan  1 00:41:19 2023.
