 Gaussian 16, Revision A.03,
 Gaussian 16:  ES64L-G16RevA.03 25-Dec-2016

 -------------------------------------
 #p CCSD(T)/cc-pVTZ Guess=Read SCF=XQC
 -------------------------------------

 ---------
 O2_O2_291
 ---------
 Symbolic Z-matrix:
 Charge = -2 Multiplicity = 3

                         Standard orientation:
 ---------------------------------------------------------------------
 Center     Atomic      Atomic             Coordinates (Angstroms)
 Number     Number       Type             X           Y           Z
 ---------------------------------------------------------------------
      1          8           0        0.000000    0.000000    2.852649
      2          8           0        0.000000    0.000000    4.205029
      3          8           0        0.000000    0.000000   -4.205029
      4          8           0        0.000000    0.000000   -2.852649
 ---------------------------------------------------------------------

 SCF Done:  E(UHF) =  -298.964796815     A.U. after   10 cycles
 E2 =    -0.1285562046D+01 EUMP2 =    -0.30025035886087D+03
 CCSD(T)
 CCSD(T)= -0.30014577524D+03

 The electronic state is 3-SGG.
 Alpha  occ. eigenvalues --  -20.23572 -20.23572 -20.22053 -20.22053  -1.08623
 Alpha  occ. eigenvalues --   -1.08623  -0.72282  -0.72281  -0.27150  -0.27150
 Alpha  occ. eigenvalues --   -0.27150  -0.27150  -0.21592  -0.21590  -0.06285
 Alpha  occ. eigenvalues --   -0.06285  -0.06285  -0.06285
 Alpha virt. eigenvalues --    0.70399   0.70455   1.10708   1.10791   1.11609
 Alpha virt. eigenvalues --    1.11609   1.11610   1.11610   1.15616   1.15682
 Alpha virt. eigenvalues --    1.20190   1.20190   1.20194   1.20194   1.33709

  Beta  occ. eigenvalues --  -20.20240 -20.20240 -20.19303 -20.19303  -1.00548
  Beta  occ. eigenvalues --   -1.00543  -0.60955  -0.60906  -0.19073  -0.19066
  Beta  occ. eigenvalues --   -0.12661  -0.12661  -0.12504  -0.12504   0.23160
  Beta  occ. eigenvalues --    0.23160
  Beta virt. eigenvalues --    0.30941   0.30941   0.73574   0.73641   1.12574
  Beta virt. eigenvalues --    1.12651   1.16489   1.16531   1.16531   1.16533
  Beta virt. eigenvalues --    1.16533   1.16572   1.25509   1.25509   1.25514

 Mulliken charges and spin densities:
               1          2
     1  O   -0.452234   0.562460
     2  O   -0.547766   0.437540
     3  O   -0.547766   0.437540
     4  O   -0.452234   0.562460
 Sum of Mulliken charges =  -2.00000   2.00000

 Dipole moment (field-independent basis, Debye):
    X=             -0.0000    Y=              0.0000    Z=              0.0000  Tot=              0.0000
 Quadrupole moment (field-independent basis, Debye-Ang):
   XX=            -24.9420   YY=            -24.9420   ZZ=           -154.9443
   XY=              0.0000   XZ=              0.0000   YZ=              0.0000

 Normal termination of Gaussian 16 at Sun Jan  1 01:39:50 2023.
