 Gaussian 16, Revision A.03,
 Gaussian 16:  ES64L-G16RevA.03 25-Dec-2016

 -------------------------------------
 #p CCSD(T)/cc-pVTZ Guess=Read SCF=XQC
 -------------------------------------

 -------
 O2_O2_5
 -------
 Symbolic Z-matrix:
 Charge = -2 Multiplicity = 3

                         Standard orientation:
 ---------------------------------------------------------------------
 Center     Atomic      Atomic             Coordinates (Angstroms)
 Number     Number       Type             X           Y           Z
 ---------------------------------------------------------------------
      1          8           0        0.000000    0.000000    0.827972
      2          8           0        0.000000    0.000000    2.180352
      3          8           0        0.000000    0.000000   -2.180352
      4          8           0        0.000000    0.000000   -0.827972
 ---------------------------------------------------------------------

 SCF Done:  E(UHF) =  -298.927339501     A.U. after   13 cycles
 E2 =    -0.1022416032D+01 EUMP2 =    -0.29994975553368D+03
 CCSD(T)
 CCSD(T)= -0.29998687758D+03

 The electronic state is 3-SGG.
 Alpha  occ. eigenvalues --  -20.19312 -20.19311 -20.07335 -20.07335  -1.04462
 Alpha  occ. eigenvalues --   -0.99370  -0.69458  -0.57867  -0.23585  -0.23585
 Alpha  occ. eigenvalues --   -0.20910  -0.17740  -0.17740  -0.00675   0.02313
 Alpha  occ. eigenvalues --    0.02313   0.05793   0.05793
 Alpha virt. eigenvalues --    0.78688   0.89333   1.16714   1.16714   1.17609
 Alpha virt. eigenvalues --    1.18106   1.22787   1.22787   1.27736   1.27736
 Alpha virt. eigenvalues --    1.38102   1.38700   1.42426   1.42426   1.52857

  Beta  occ. eigenvalues --  -20.14232 -20.14216 -20.06087 -20.06087  -0.94195
  Beta  occ. eigenvalues --   -0.90315  -0.62127  -0.45416  -0.17845  -0.07101
  Beta  occ. eigenvalues --   -0.07101  -0.02095  -0.02095   0.03422   0.20166
  Beta  occ. eigenvalues --    0.20166
  Beta virt. eigenvalues --    0.54065   0.54065   0.82720   0.93024   1.18126
  Beta virt. eigenvalues --    1.19863   1.23690   1.23690   1.26069   1.26069
  Beta virt. eigenvalues --    1.32263   1.32263   1.38755   1.39142   1.48657

 Mulliken charges and spin densities:
               1          2
     1  O   -0.187246   0.854295
     2  O   -0.812754   0.145705
     3  O   -0.812754   0.145705
     4  O   -0.187246   0.854295
 Sum of Mulliken charges =  -2.00000   2.00000

 Dipole moment (field-independent basis, Debye):
    X=             -0.0000    Y=             -0.0000    Z=              0.0000  Tot=              0.0000
 Quadrupole moment (field-independent basis, Debye-Ang):
   XX=            -25.0411   YY=            -25.0411   ZZ=            -64.8357
   XY=              0.0000   XZ=              0.0000   YZ=              0.0000

 Normal termination of Gaussian 16 at Sat Dec 31 19:51:45 2022.
