 Gaussian 16, Revision A.03,
 Gaussian 16:  ES64L-G16RevA.03 25-Dec-2016

 -------------------------------------
 #p CCSD(T)/cc-pVTZ Guess=Read SCF=XQC
 -------------------------------------

 --------
 O2_O2_78
 --------
 Symbolic Z-matrix:
 Charge = -2 Multiplicity = 3

                         Standard orientation:
 ---------------------------------------------------------------------
 Center     Atomic      Atomic             Coordinates (Angstroms)
 Number     Number       Type             X           Y           Z
 ---------------------------------------------------------------------
      1          8           0        0.000000    0.000000    1.344760
      2          8           0        0.000000    0.000000    2.697140
      3          8           0        0.000000    0.000000   -2.697140
      4          8           0        0.000000    0.000000   -1.344760
 ---------------------------------------------------------------------

 SCF Done:  E(UHF) =  -298.958779449     A.U. after   12 cycles
 E2 =    -0.1095385596D+01 EUMP2 =    -0.30005416504508D+03
 CCSD(T)
 CCSD(T)= -0.30007647398D+03

 The electronic state is 3-SGG.
 Alpha  occ. eigenvalues --  -20.20645 -20.20644 -20.14651 -20.14651  -1.03946
 Alpha  occ. eigenvalues --   -1.03726  -0.67300  -0.66329  -0.22700  -0.22700
 Alpha  occ. eigenvalues --   -0.22258  -0.22258  -0.17483  -0.14728  -0.01046
 Alpha  occ. eigenvalues --   -0.01046  -0.00478  -0.00478
 Alpha virt. eigenvalues --    0.74214   0.80739   1.13630   1.13630   1.15706
 Alpha virt. eigenvalues --    1.15955   1.18107   1.18107   1.18893   1.22366
 Alpha virt. eigenvalues --    1.22366   1.32069   1.32069   1.38097   1.38749

  Beta  occ. eigenvalues --  -20.16439 -20.16436 -20.12627 -20.12626  -0.95415
  Beta  occ. eigenvalues --   -0.95129  -0.56368  -0.54533  -0.15111  -0.11812
  Beta  occ. eigenvalues --   -0.08098  -0.08098  -0.06897  -0.06897   0.24328
  Beta  occ. eigenvalues --    0.24328
  Beta virt. eigenvalues --    0.41443   0.41443   0.77426   0.84612   1.16820
  Beta virt. eigenvalues --    1.16997   1.19799   1.19799   1.20577   1.22329
  Beta virt. eigenvalues --    1.22329   1.26882   1.26882   1.38013   1.38013

 Mulliken charges and spin densities:
               1          2
     1  O   -0.345956   0.711734
     2  O   -0.654044   0.288266
     3  O   -0.654044   0.288266
     4  O   -0.345956   0.711734
 Sum of Mulliken charges =  -2.00000   2.00000

 Dipole moment (field-independent basis, Debye):
    X=             -0.0000    Y=              0.0000    Z=             -0.0000  Tot=              0.0000
 Quadrupole moment (field-independent basis, Debye-Ang):
   XX=            -25.0528   YY=            -25.0528   ZZ=            -78.1426
   XY=              0.0000   XZ=              0.0000   YZ=              0.0000

 2676\PMP3-0=-300.0189275\MP4SDQ=-299.994919\CCSD=-299.9882806\CCSD(T)=
 Normal termination of Gaussian 16 at Sat Dec 31 21:17:27 2022.
