 Gaussian 16, Revision A.03,
 Gaussian 16:  ES64L-G16RevA.03 25-Dec-2016

 -------------------------------------
 #p CCSD(T)/cc-pVTZ Guess=Read SCF=XQC
 -------------------------------------

 --------
 O2_O2_28
 --------
 Symbolic Z-matrix:
 Charge = -2 Multiplicity = 3

                         Standard orientation:
 ---------------------------------------------------------------------
 Center     Atomic      Atomic             Coordinates (Angstroms)
 Number     Number       Type             X           Y           Z
 ---------------------------------------------------------------------
      1          8           0        0.000000    0.000000    0.990795
      2          8           0        0.000000    0.000000    2.343176
      3          8           0        0.000000    0.000000   -2.343176
      4          8           0        0.000000    0.000000   -0.990795
 ---------------------------------------------------------------------

 SCF Done:  E(UHF) =  -298.964587147     A.U. after   12 cycles
 E2 =    -0.1036818350D+01 EUMP2 =    -0.30000140549777D+03
 CCSD(T)
 CCSD(T)= -0.30003966456D+03

 The electronic state is 3-SGG.
 Alpha  occ. eigenvalues --  -20.19963 -20.19962 -20.10395 -20.10395  -1.03195
 Alpha  occ. eigenvalues --   -1.01401  -0.67189  -0.61872  -0.22323  -0.22323
 Alpha  occ. eigenvalues --   -0.19841  -0.19841  -0.18743  -0.08036   0.01081
 Alpha  occ. eigenvalues --    0.01081   0.03052   0.03052
 Alpha virt. eigenvalues --    0.77658   0.85317   1.14922   1.14922   1.16622
 Alpha virt. eigenvalues --    1.18315   1.21039   1.21039   1.25043   1.25043
 Alpha virt. eigenvalues --    1.38321   1.38812   1.39678   1.39678   1.44175

  Beta  occ. eigenvalues --  -20.15114 -20.15106 -20.08891 -20.08891  -0.93839
  Beta  occ. eigenvalues --   -0.92320  -0.57776  -0.49563  -0.16322  -0.06934
  Beta  occ. eigenvalues --   -0.06934  -0.04527  -0.04093  -0.04093   0.22462
  Beta  occ. eigenvalues --    0.22462
  Beta virt. eigenvalues --    0.48905   0.48905   0.81559   0.89208   1.18074
  Beta virt. eigenvalues --    1.18597   1.22141   1.22141   1.24617   1.24617
  Beta virt. eigenvalues --    1.29277   1.29277   1.39067   1.39629   1.44819

 Mulliken charges and spin densities:
               1          2
     1  O   -0.257314   0.812464
     2  O   -0.742686   0.187536
     3  O   -0.742686   0.187536
     4  O   -0.257314   0.812464
 Sum of Mulliken charges =  -2.00000   2.00000

 Dipole moment (field-independent basis, Debye):
    X=             -0.0000    Y=              0.0000    Z=              0.0000  Tot=              0.0000
 Quadrupole moment (field-independent basis, Debye-Ang):
   XX=            -25.1183   YY=            -25.1183   ZZ=            -67.7100
   XY=              0.0000   XZ=              0.0000   YZ=              0.0000

 Normal termination of Gaussian 16 at Sat Dec 31 20:18:13 2022.
