 Gaussian 16, Revision A.03,
 Gaussian 16:  ES64L-G16RevA.03 25-Dec-2016

 -------------------------------------
 #p CCSD(T)/cc-pVTZ Guess=Read SCF=XQC
 -------------------------------------

 ---------
 O2_O2_237
 ---------
 Symbolic Z-matrix:
 Charge = -2 Multiplicity = 3

                         Standard orientation:
 ---------------------------------------------------------------------
 Center     Atomic      Atomic             Coordinates (Angstroms)
 Number     Number       Type             X           Y           Z
 ---------------------------------------------------------------------
      1          8           0        0.000000    0.000000    2.470368
      2          8           0        0.000000    0.000000    3.822748
      3          8           0        0.000000    0.000000   -3.822748
      4          8           0        0.000000    0.000000   -2.470368
 ---------------------------------------------------------------------

 SCF Done:  E(UHF) =  -298.960616921     A.U. after   11 cycles
 E2 =    -0.1244001851D+01 EUMP2 =    -0.30020461877153D+03
 CCSD(T)
 CCSD(T)= -0.30013395644D+03

 The electronic state is 3-SGG.
 Alpha  occ. eigenvalues --  -20.22835 -20.22835 -20.20918 -20.20918  -1.07712
 Alpha  occ. eigenvalues --   -1.07712  -0.71332  -0.71330  -0.26245  -0.26245
 Alpha  occ. eigenvalues --   -0.26244  -0.26244  -0.20648  -0.20627  -0.05338
 Alpha  occ. eigenvalues --   -0.05338  -0.05335  -0.05335
 Alpha virt. eigenvalues --    0.71143   0.71708   1.11289   1.12133   1.12504
 Alpha virt. eigenvalues --    1.12504   1.12525   1.12525   1.16313   1.17198
 Alpha virt. eigenvalues --    1.21096   1.21096   1.21156   1.21156   1.34604

  Beta  occ. eigenvalues --  -20.19429 -20.19429 -20.18244 -20.18244  -0.99628
  Beta  occ. eigenvalues --   -0.99619  -0.60028  -0.59950  -0.18130  -0.18094
  Beta  occ. eigenvalues --   -0.11791  -0.11791  -0.11566  -0.11566   0.23577
  Beta  occ. eigenvalues --    0.23577
  Beta virt. eigenvalues --    0.32417   0.32417   0.74280   0.74943   1.13195
  Beta virt. eigenvalues --    1.13862   1.17154   1.17415   1.17415   1.17433
  Beta virt. eigenvalues --    1.17433   1.18181   1.26423   1.26423   1.26487

 Mulliken charges and spin densities:
               1          2
     1  O   -0.439893   0.578525
     2  O   -0.560107   0.421475
     3  O   -0.560107   0.421475
     4  O   -0.439893   0.578525
 Sum of Mulliken charges =  -2.00000   2.00000

 Dipole moment (field-independent basis, Debye):
    X=             -0.0000    Y=             -0.0000    Z=              0.0000  Tot=              0.0000
 Quadrupole moment (field-independent basis, Debye-Ang):
   XX=            -24.9458   YY=            -24.9458   ZZ=           -131.0209
   XY=              0.0000   XZ=              0.0000   YZ=              0.0000

 Normal termination of Gaussian 16 at Sun Jan  1 00:33:54 2023.
