 Gaussian 16, Revision A.03,
 Gaussian 16:  ES64L-G16RevA.03 25-Dec-2016

 -------------------------------------
 #p CCSD(T)/cc-pVTZ Guess=Read SCF=XQC
 -------------------------------------

 ---------
 O2_O2_182
 ---------
 Symbolic Z-matrix:
 Charge = -2 Multiplicity = 3

                         Standard orientation:
 ---------------------------------------------------------------------
 Center     Atomic      Atomic             Coordinates (Angstroms)
 Number     Number       Type             X           Y           Z
 ---------------------------------------------------------------------
      1          8           0        0.000000    0.000000    2.081007
      2          8           0        0.000000    0.000000    3.433387
      3          8           0        0.000000    0.000000   -3.433387
      4          8           0        0.000000    0.000000   -2.081007
 ---------------------------------------------------------------------

 SCF Done:  E(UHF) =  -298.956065672     A.U. after   11 cycles
 E2 =    -0.1199588641D+01 EUMP2 =    -0.30015565431365D+03
 CCSD(T)
 CCSD(T)= -0.30011866716D+03

 The electronic state is 3-SGG.
 Alpha  occ. eigenvalues --  -20.21964 -20.21964 -20.19403 -20.19403  -1.06562
 Alpha  occ. eigenvalues --   -1.06559  -0.70120  -0.70094  -0.25111  -0.25111
 Alpha  occ. eigenvalues --   -0.25099  -0.25099  -0.19485  -0.19332  -0.04127
 Alpha  occ. eigenvalues --   -0.04127  -0.04102  -0.04102
 Alpha virt. eigenvalues --    0.71144   0.74117   1.09836   1.13550   1.13550
 Alpha virt. eigenvalues --    1.13779   1.13779   1.14189   1.16215   1.22016
 Alpha virt. eigenvalues --    1.22016   1.22654   1.22654   1.22861   1.35730

  Beta  occ. eigenvalues --  -20.18438 -20.18437 -20.16848 -20.16848  -0.98452
  Beta  occ. eigenvalues --   -0.98431  -0.58854  -0.58691  -0.16974  -0.16771
  Beta  occ. eigenvalues --   -0.10702  -0.10702  -0.10352  -0.10352   0.24058
  Beta  occ. eigenvalues --    0.24058
  Beta virt. eigenvalues --    0.34408   0.34408   0.74069   0.77552   1.11997
  Beta virt. eigenvalues --    1.15502   1.16941   1.18472   1.18472   1.18641
  Beta virt. eigenvalues --    1.18641   1.24117   1.27346   1.27346   1.28022

 Mulliken charges and spin densities:
               1          2
     1  O   -0.421584   0.603254
     2  O   -0.578416   0.396746
     3  O   -0.578416   0.396746
     4  O   -0.421584   0.603254
 Sum of Mulliken charges =  -2.00000   2.00000

 Dipole moment (field-independent basis, Debye):
    X=             -0.0000    Y=             -0.0000    Z=              0.0000  Tot=              0.0000
 Quadrupole moment (field-independent basis, Debye-Ang):
   XX=            -24.9555   YY=            -24.9555   ZZ=           -109.6970
   XY=              0.0000   XZ=              0.0000   YZ=              0.0000

 Normal termination of Gaussian 16 at Sat Dec 31 23:25:51 2022.
