 Gaussian 16, Revision A.03,
 Gaussian 16:  ES64L-G16RevA.03 25-Dec-2016

 -------------------------------------
 #p CCSD(T)/cc-pVTZ Guess=Read SCF=XQC
 -------------------------------------

 --------
 O2_O2_49
 --------
 Symbolic Z-matrix:
 Charge = -2 Multiplicity = 3

                         Standard orientation:
 ---------------------------------------------------------------------
 Center     Atomic      Atomic             Coordinates (Angstroms)
 Number     Number       Type             X           Y           Z
 ---------------------------------------------------------------------
      1          8           0        0.000000    0.000000    1.139461
      2          8           0        0.000000    0.000000    2.491841
      3          8           0        0.000000    0.000000   -2.491841
      4          8           0        0.000000    0.000000   -1.139461
 ---------------------------------------------------------------------

 SCF Done:  E(UHF) =  -298.965599487     A.U. after   12 cycles
 E2 =    -0.1060064766D+01 EUMP2 =    -0.30002566425261D+03
 CCSD(T)
 CCSD(T)= -0.30005950157D+03

 The electronic state is 3-SGG.
 Alpha  occ. eigenvalues --  -20.20370 -20.20369 -20.12455 -20.12455  -1.03330
 Alpha  occ. eigenvalues --   -1.02597  -0.66831  -0.64237  -0.22278  -0.22278
 Alpha  occ. eigenvalues --   -0.21091  -0.21091  -0.17762  -0.11749   0.00105
 Alpha  occ. eigenvalues --    0.00105   0.01276   0.01276
 Alpha virt. eigenvalues --    0.76334   0.83037   1.13736   1.13736   1.16106
 Alpha virt. eigenvalues --    1.18139   1.19721   1.19721   1.23492   1.23492
 Alpha virt. eigenvalues --    1.30895   1.36628   1.36628   1.38610   1.39863

  Beta  occ. eigenvalues --  -20.15794 -20.15789 -20.10714 -20.10713  -0.94419
  Beta  occ. eigenvalues --   -0.93693  -0.56471  -0.52156  -0.15455  -0.08557
  Beta  occ. eigenvalues --   -0.07351  -0.07351  -0.05439  -0.05439   0.23612
  Beta  occ. eigenvalues --    0.23612
  Beta virt. eigenvalues --    0.45224   0.45224   0.79973   0.86952   1.17315
  Beta virt. eigenvalues --    1.18532   1.20662   1.20662   1.23583   1.23583
  Beta virt. eigenvalues --    1.27647   1.27647   1.32987   1.38947   1.40309

 Mulliken charges and spin densities:
               1          2
     1  O   -0.301942   0.767590
     2  O   -0.698058   0.232410
     3  O   -0.698058   0.232410
     4  O   -0.301942   0.767590
 Sum of Mulliken charges =  -2.00000   2.00000

 Dipole moment (field-independent basis, Debye):
    X=             -0.0000    Y=              0.0000    Z=              0.0000  Tot=              0.0000
 Quadrupole moment (field-independent basis, Debye-Ang):
   XX=            -25.1046   YY=            -25.1046   ZZ=            -71.5842
   XY=              0.0000   XZ=              0.0000   YZ=              0.0000

 Normal termination of Gaussian 16 at Sat Dec 31 20:43:04 2022.
