 Gaussian 16, Revision A.03,
 Gaussian 16:  ES64L-G16RevA.03 25-Dec-2016

 -------------------------------------
 #p CCSD(T)/cc-pVTZ Guess=Read SCF=XQC
 -------------------------------------

 ---------
 O2_O2_269
 ---------
 Symbolic Z-matrix:
 Charge = -2 Multiplicity = 3

                         Standard orientation:
 ---------------------------------------------------------------------
 Center     Atomic      Atomic             Coordinates (Angstroms)
 Number     Number       Type             X           Y           Z
 ---------------------------------------------------------------------
      1          8           0        0.000000    0.000000    2.696905
      2          8           0        0.000000    0.000000    4.049285
      3          8           0        0.000000    0.000000   -4.049285
      4          8           0        0.000000    0.000000   -2.696905
 ---------------------------------------------------------------------

 SCF Done:  E(UHF) =  -298.963173583     A.U. after   11 cycles
 E2 =    -0.1268759115D+01 EUMP2 =    -0.30023193269778D+03
 CCSD(T)
 CCSD(T)= -0.30014127951D+03

 The electronic state is 3-SGG.
 Alpha  occ. eigenvalues --  -20.23288 -20.23288 -20.21624 -20.21624  -1.08276
 Alpha  occ. eigenvalues --   -1.08276  -0.71921  -0.71920  -0.26804  -0.26804
 Alpha  occ. eigenvalues --   -0.26804  -0.26804  -0.21231  -0.21226  -0.05925
 Alpha  occ. eigenvalues --   -0.05925  -0.05924  -0.05924
 Alpha virt. eigenvalues --    0.70729   0.70884   1.11010   1.11241   1.11953
 Alpha virt. eigenvalues --    1.11953   1.11957   1.11957   1.15951   1.16154
 Alpha virt. eigenvalues --    1.20541   1.20541   1.20553   1.20553   1.34050

  Beta  occ. eigenvalues --  -20.19929 -20.19929 -20.18902 -20.18902  -1.00197
  Beta  occ. eigenvalues --   -1.00191  -0.60602  -0.60543  -0.18713  -0.18699
  Beta  occ. eigenvalues --   -0.12328  -0.12328  -0.12147  -0.12147   0.23321
  Beta  occ. eigenvalues --    0.23321
  Beta virt. eigenvalues --    0.31498   0.31498   0.73898   0.74080   1.12876
  Beta virt. eigenvalues --    1.13071   1.16822   1.16870   1.16870   1.16875
  Beta virt. eigenvalues --    1.16875   1.17065   1.25863   1.25863   1.25877

 Mulliken charges and spin densities:
               1          2
     1  O   -0.447710   0.568330
     2  O   -0.552290   0.431670
     3  O   -0.552290   0.431670
     4  O   -0.447710   0.568330
 Sum of Mulliken charges =  -2.00000   2.00000

 Dipole moment (field-independent basis, Debye):
    X=             -0.0000    Y=             -0.0000    Z=              0.0000  Tot=              0.0000
 Quadrupole moment (field-independent basis, Debye-Ang):
   XX=            -24.9432   YY=            -24.9432   ZZ=           -144.8432
   XY=              0.0000   XZ=              0.0000   YZ=              0.0000

 52\PMP3-0=-300.2462739\MP4SDQ=-299.6892405\CCSD=-300.0219043\CCSD(T)=-
 Normal termination of Gaussian 16 at Sun Jan  1 01:13:23 2023.
