 Gaussian 16, Revision A.03,
 Gaussian 16:  ES64L-G16RevA.03 25-Dec-2016

 -------------------------------------
 #p CCSD(T)/cc-pVTZ Guess=Read SCF=XQC
 -------------------------------------

 ---------
 O2_O2_172
 ---------
 Symbolic Z-matrix:
 Charge = -2 Multiplicity = 3

                         Standard orientation:
 ---------------------------------------------------------------------
 Center     Atomic      Atomic             Coordinates (Angstroms)
 Number     Number       Type             X           Y           Z
 ---------------------------------------------------------------------
      1          8           0        0.000000    0.000000    2.010214
      2          8           0        0.000000    0.000000    3.362594
      3          8           0        0.000000    0.000000   -3.362594
      4          8           0        0.000000    0.000000   -2.010214
 ---------------------------------------------------------------------

 SCF Done:  E(UHF) =  -298.955342485     A.U. after   11 cycles
 E2 =    -0.1191055599D+01 EUMP2 =    -0.30014639808413D+03
 CCSD(T)
 CCSD(T)= -0.30011544770D+03

 The electronic state is 3-SGG.
 Alpha  occ. eigenvalues --  -20.21801 -20.21801 -20.19076 -20.19076  -1.06329
 Alpha  occ. eigenvalues --   -1.06324  -0.69870  -0.69833  -0.24882  -0.24882
 Alpha  occ. eigenvalues --   -0.24865  -0.24865  -0.19256  -0.19048  -0.03878
 Alpha  occ. eigenvalues --   -0.03878  -0.03842  -0.03842
 Alpha virt. eigenvalues --    0.71018   0.74703   1.09128   1.13733   1.13733
 Alpha virt. eigenvalues --    1.14066   1.14066   1.14501   1.16211   1.22133
 Alpha virt. eigenvalues --    1.22133   1.23054   1.23054   1.25043   1.35958

  Beta  occ. eigenvalues --  -20.18244 -20.18243 -20.16549 -20.16549  -0.98208
  Beta  occ. eigenvalues --   -0.98183  -0.58614  -0.58420  -0.16748  -0.16476
  Beta  occ. eigenvalues --   -0.10481  -0.10481  -0.10096  -0.10096   0.24145
  Beta  occ. eigenvalues --    0.24145
  Beta virt. eigenvalues --    0.34847   0.34847   0.73879   0.78193   1.11334
  Beta virt. eigenvalues --    1.15751   1.16942   1.18669   1.18669   1.18911
  Beta virt. eigenvalues --    1.18911   1.26318   1.27456   1.27456   1.28439

 Mulliken charges and spin densities:
               1          2
     1  O   -0.417305   0.609251
     2  O   -0.582695   0.390749
     3  O   -0.582695   0.390749
     4  O   -0.417305   0.609251
 Sum of Mulliken charges =  -2.00000   2.00000

 Dipole moment (field-independent basis, Debye):
    X=             -0.0000    Y=              0.0000    Z=              0.0000  Tot=              0.0000
 Quadrupole moment (field-independent basis, Debye-Ang):
   XX=            -24.9588   YY=            -24.9588   ZZ=           -106.1547
   XY=              0.0000   XZ=              0.0000   YZ=              0.0000

 Normal termination of Gaussian 16 at Sat Dec 31 23:13:25 2022.
