 Gaussian 16, Revision A.03,
 Gaussian 16:  ES64L-G16RevA.03 25-Dec-2016

 -------------------------------------
 #p CCSD(T)/cc-pVTZ Guess=Read SCF=XQC
 -------------------------------------

 ---------
 O2_O2_262
 ---------
 Symbolic Z-matrix:
 Charge = -2 Multiplicity = 3

                         Standard orientation:
 ---------------------------------------------------------------------
 Center     Atomic      Atomic             Coordinates (Angstroms)
 Number     Number       Type             X           Y           Z
 ---------------------------------------------------------------------
      1          8           0        0.000000    0.000000    2.647350
      2          8           0        0.000000    0.000000    3.999730
      3          8           0        0.000000    0.000000   -3.999730
      4          8           0        0.000000    0.000000   -2.647350
 ---------------------------------------------------------------------

 SCF Done:  E(UHF) =  -298.962633157     A.U. after   11 cycles
 E2 =    -0.1263381198D+01 EUMP2 =    -0.30022601435497D+03
 CCSD(T)
 CCSD(T)= -0.30013976218D+03

 The electronic state is 3-SGG.
 Alpha  occ. eigenvalues --  -20.23193 -20.23193 -20.21479 -20.21479  -1.08158
 Alpha  occ. eigenvalues --   -1.08158  -0.71799  -0.71798  -0.26688  -0.26688
 Alpha  occ. eigenvalues --   -0.26688  -0.26688  -0.21110  -0.21102  -0.05803
 Alpha  occ. eigenvalues --   -0.05803  -0.05802  -0.05802
 Alpha virt. eigenvalues --    0.70831   0.71040   1.11095   1.11407   1.12068
 Alpha virt. eigenvalues --    1.12068   1.12074   1.12074   1.16049   1.16333
 Alpha virt. eigenvalues --    1.20659   1.20659   1.20676   1.20676   1.34165

  Beta  occ. eigenvalues --  -20.19825 -20.19824 -20.18766 -20.18766  -1.00079
  Beta  occ. eigenvalues --   -1.00072  -0.60483  -0.60420  -0.18591  -0.18575
  Beta  occ. eigenvalues --   -0.12216  -0.12216  -0.12027  -0.12027   0.23375
  Beta  occ. eigenvalues --    0.23375
  Beta virt. eigenvalues --    0.31688   0.31688   0.73995   0.74242   1.12964
  Beta virt. eigenvalues --    1.13224   1.16917   1.16984   1.16984   1.16990
  Beta virt. eigenvalues --    1.16990   1.17254   1.25982   1.25982   1.26001

 Mulliken charges and spin densities:
               1          2
     1  O   -0.446136   0.570376
     2  O   -0.553864   0.429624
     3  O   -0.553864   0.429624
     4  O   -0.446136   0.570376
 Sum of Mulliken charges =  -2.00000   2.00000

 Dipole moment (field-independent basis, Debye):
    X=             -0.0000    Y=              0.0000    Z=             -0.0000  Tot=              0.0000
 Quadrupole moment (field-independent basis, Debye-Ang):
   XX=            -24.9437   YY=            -24.9437   ZZ=           -141.7312
   XY=              0.0000   XZ=              0.0000   YZ=              0.0000

 Normal termination of Gaussian 16 at Sun Jan  1 01:04:50 2023.
