 Gaussian 16, Revision A.03,
 Gaussian 16:  ES64L-G16RevA.03 25-Dec-2016

 -------------------------------------
 #p CCSD(T)/cc-pVTZ Guess=Read SCF=XQC
 -------------------------------------

 ---------
 O2_O2_119
 ---------
 Symbolic Z-matrix:
 Charge = -2 Multiplicity = 3

                         Standard orientation:
 ---------------------------------------------------------------------
 Center     Atomic      Atomic             Coordinates (Angstroms)
 Number     Number       Type             X           Y           Z
 ---------------------------------------------------------------------
      1          8           0        0.000000    0.000000    1.635011
      2          8           0        0.000000    0.000000    2.987391
      3          8           0        0.000000    0.000000   -2.987391
      4          8           0        0.000000    0.000000   -1.635011
 ---------------------------------------------------------------------

 SCF Done:  E(UHF) =  -298.953854465     A.U. after   11 cycles
 E2 =    -0.1141333582D+01 EUMP2 =    -0.30009518804714D+03
 CCSD(T)
 CCSD(T)= -0.30009556384D+03

 The electronic state is 3-SGG.
 Alpha  occ. eigenvalues --  -20.21030 -20.21030 -20.16956 -20.16956  -1.04997
 Alpha  occ. eigenvalues --   -1.04955  -0.68426  -0.68186  -0.23612  -0.23612
 Alpha  occ. eigenvalues --   -0.23501  -0.23501  -0.18057  -0.17137  -0.02404
 Alpha  occ. eigenvalues --   -0.02404  -0.02214  -0.02214
 Alpha virt. eigenvalues --    0.71386   0.78065   1.07677   1.14242   1.14242
 Alpha virt. eigenvalues --    1.15510   1.16066   1.16066   1.16982   1.22172
 Alpha virt. eigenvalues --    1.22172   1.26692   1.26692   1.37149   1.37448

  Beta  occ. eigenvalues --  -20.17209 -20.17207 -20.14646 -20.14645  -0.96748
  Beta  occ. eigenvalues --   -0.96659  -0.57252  -0.56644  -0.15592  -0.14442
  Beta  occ. eigenvalues --   -0.09190  -0.09190  -0.08505  -0.08505   0.24484
  Beta  occ. eigenvalues --    0.24484
  Beta virt. eigenvalues --    0.37836   0.37836   0.74115   0.81825   1.09941
  Beta virt. eigenvalues --    1.16611   1.17774   1.19518   1.19518   1.20677
  Beta virt. eigenvalues --    1.20677   1.27284   1.27284   1.32296   1.32296

 Mulliken charges and spin densities:
               1          2
     1  O   -0.386214   0.654098
     2  O   -0.613786   0.345902
     3  O   -0.613786   0.345902
     4  O   -0.386214   0.654098
 Sum of Mulliken charges =  -2.00000   2.00000

 Dipole moment (field-independent basis, Debye):
    X=             -0.0000    Y=             -0.0000    Z=              0.0000  Tot=              0.0000
 Quadrupole moment (field-independent basis, Debye-Ang):
   XX=            -24.9942   YY=            -24.9942   ZZ=            -89.1651
   XY=              0.0000   XZ=              0.0000   YZ=              0.0000

 Normal termination of Gaussian 16 at Sat Dec 31 22:07:29 2022.
