 Gaussian 16, Revision A.03,
 Gaussian 16:  ES64L-G16RevA.03 25-Dec-2016

 -------------------------------------
 #p CCSD(T)/cc-pVTZ Guess=Read SCF=XQC
 -------------------------------------

 ---------
 O2_O2_125
 ---------
 Symbolic Z-matrix:
 Charge = -2 Multiplicity = 3

                         Standard orientation:
 ---------------------------------------------------------------------
 Center     Atomic      Atomic             Coordinates (Angstroms)
 Number     Number       Type             X           Y           Z
 ---------------------------------------------------------------------
      1          8           0        0.000000    0.000000    1.677487
      2          8           0        0.000000    0.000000    3.029867
      3          8           0        0.000000    0.000000   -3.029867
      4          8           0        0.000000    0.000000   -1.677487
 ---------------------------------------------------------------------

 SCF Done:  E(UHF) =  -298.953704924     A.U. after   11 cycles
 E2 =    -0.1147454044D+01 EUMP2 =    -0.30010115896832D+03
 CCSD(T)
 CCSD(T)= -0.30009807549D+03

 The electronic state is 3-SGG.
 Alpha  occ. eigenvalues --  -20.21104 -20.21104 -20.17236 -20.17236  -1.05153
 Alpha  occ. eigenvalues --   -1.05120  -0.68597  -0.68402  -0.23756  -0.23756
 Alpha  occ. eigenvalues --   -0.23666  -0.23666  -0.18183  -0.17400  -0.02585
 Alpha  occ. eigenvalues --   -0.02585  -0.02425  -0.02425
 Alpha virt. eigenvalues --    0.71145   0.77683   1.07305   1.14253   1.14253
 Alpha virt. eigenvalues --    1.15450   1.15797   1.15797   1.16833   1.22204
 Alpha virt. eigenvalues --    1.22204   1.26107   1.26107   1.36989   1.37270

  Beta  occ. eigenvalues --  -20.17324 -20.17322 -20.14894 -20.14894  -0.96928
  Beta  occ. eigenvalues --   -0.96853  -0.57409  -0.56883  -0.15709  -0.14726
  Beta  occ. eigenvalues --   -0.09345  -0.09345  -0.08708  -0.08708   0.24464
  Beta  occ. eigenvalues --    0.24464
  Beta virt. eigenvalues --    0.37425   0.37425   0.73848   0.81419   1.09594
  Beta virt. eigenvalues --    1.16555   1.17619   1.19452   1.19452   1.20450
  Beta virt. eigenvalues --    1.20450   1.27369   1.27369   1.31671   1.31671

 Mulliken charges and spin densities:
               1          2
     1  O   -0.390656   0.647620
     2  O   -0.609344   0.352380
     3  O   -0.609344   0.352380
     4  O   -0.390656   0.647620
 Sum of Mulliken charges =  -2.00000   2.00000

 Dipole moment (field-independent basis, Debye):
    X=             -0.0000    Y=              0.0000    Z=             -0.0000  Tot=              0.0000
 Quadrupole moment (field-independent basis, Debye-Ang):
   XX=            -24.9881   YY=            -24.9881   ZZ=            -90.9350
   XY=              0.0000   XZ=              0.0000   YZ=              0.0000

 Normal termination of Gaussian 16 at Sat Dec 31 22:14:51 2022.
