 Gaussian 16, Revision A.03,
 Gaussian 16:  ES64L-G16RevA.03 25-Dec-2016

 -------------------------------------
 #p CCSD(T)/cc-pVTZ Guess=Read SCF=XQC
 -------------------------------------

 ---------
 O2_O2_274
 ---------
 Symbolic Z-matrix:
 Charge = -2 Multiplicity = 3

                         Standard orientation:
 ---------------------------------------------------------------------
 Center     Atomic      Atomic             Coordinates (Angstroms)
 Number     Number       Type             X           Y           Z
 ---------------------------------------------------------------------
      1          8           0        0.000000    0.000000    2.732301
      2          8           0        0.000000    0.000000    4.084681
      3          8           0        0.000000    0.000000   -4.084681
      4          8           0        0.000000    0.000000   -2.732301
 ---------------------------------------------------------------------

 SCF Done:  E(UHF) =  -298.963552579     A.U. after   11 cycles
 E2 =    -0.1272590207D+01 EUMP2 =    -0.30023614278613D+03
 CCSD(T)
 CCSD(T)= -0.30014233747D+03

 The electronic state is 3-SGG.
 Alpha  occ. eigenvalues --  -20.23355 -20.23355 -20.21726 -20.21726  -1.08357
 Alpha  occ. eigenvalues --   -1.08357  -0.72006  -0.72005  -0.26886  -0.26886
 Alpha  occ. eigenvalues --   -0.26886  -0.26886  -0.21316  -0.21312  -0.06009
 Alpha  occ. eigenvalues --   -0.06009  -0.06009  -0.06009
 Alpha virt. eigenvalues --    0.70655   0.70779   1.10945   1.11129   1.11872
 Alpha virt. eigenvalues --    1.11872   1.11875   1.11875   1.15878   1.16036
 Alpha virt. eigenvalues --    1.20459   1.20459   1.20468   1.20468   1.33970

  Beta  occ. eigenvalues --  -20.20002 -20.20002 -20.18997 -20.18997  -1.00280
  Beta  occ. eigenvalues --   -1.00274  -0.60685  -0.60628  -0.18797  -0.18786
  Beta  occ. eigenvalues --   -0.12406  -0.12406  -0.12231  -0.12231   0.23284
  Beta  occ. eigenvalues --    0.23284
  Beta virt. eigenvalues --    0.31367   0.31367   0.73826   0.73972   1.12810
  Beta virt. eigenvalues --    1.12969   1.16750   1.16791   1.16791   1.16795
  Beta virt. eigenvalues --    1.16795   1.16941   1.25781   1.25781   1.25791

 Mulliken charges and spin densities:
               1          2
     1  O   -0.448793   0.566925
     2  O   -0.551207   0.433075
     3  O   -0.551207   0.433075
     4  O   -0.448793   0.566925
 Sum of Mulliken charges =  -2.00000   2.00000

 Dipole moment (field-independent basis, Debye):
    X=             -0.0000    Y=              0.0000    Z=             -0.0000  Tot=              0.0000
 Quadrupole moment (field-independent basis, Debye-Ang):
   XX=            -24.9429   YY=            -24.9429   ZZ=           -147.0962
   XY=              0.0000   XZ=              0.0000   YZ=              0.0000

 Normal termination of Gaussian 16 at Sun Jan  1 01:19:24 2023.
