 Gaussian 16, Revision A.03,
 Gaussian 16:  ES64L-G16RevA.03 25-Dec-2016

 -------------------------------------
 #p CCSD(T)/cc-pVTZ Guess=Read SCF=XQC
 -------------------------------------

 --------
 O2_O2_85
 --------
 Symbolic Z-matrix:
 Charge = -2 Multiplicity = 3

                         Standard orientation:
 ---------------------------------------------------------------------
 Center     Atomic      Atomic             Coordinates (Angstroms)
 Number     Number       Type             X           Y           Z
 ---------------------------------------------------------------------
      1          8           0        0.000000    0.000000    1.394315
      2          8           0        0.000000    0.000000    2.746695
      3          8           0        0.000000    0.000000   -2.746695
      4          8           0        0.000000    0.000000   -1.394315
 ---------------------------------------------------------------------

 SCF Done:  E(UHF) =  -298.957393206     A.U. after   12 cycles
 E2 =    -0.1103715270D+01 EUMP2 =    -0.30006110847534D+03
 CCSD(T)
 CCSD(T)= -0.30007999452D+03

 The electronic state is 3-SGG.
 Alpha  occ. eigenvalues --  -20.20699 -20.20699 -20.15101 -20.15101  -1.04119
 Alpha  occ. eigenvalues --   -1.03954  -0.67476  -0.66711  -0.22840  -0.22840
 Alpha  occ. eigenvalues --   -0.22490  -0.22490  -0.17528  -0.15242  -0.01296
 Alpha  occ. eigenvalues --   -0.01296  -0.00821  -0.00821
 Alpha virt. eigenvalues --    0.73662   0.80257   1.13758   1.13758   1.14022
 Alpha virt. eigenvalues --    1.15671   1.17738   1.17738   1.18205   1.22239
 Alpha virt. eigenvalues --    1.22239   1.31006   1.31006   1.37949   1.38517

  Beta  occ. eigenvalues --  -20.16573 -20.16570 -20.13018 -20.13018  -0.95654
  Beta  occ. eigenvalues --   -0.95422  -0.56475  -0.54971  -0.15135  -0.12376
  Beta  occ. eigenvalues --   -0.08286  -0.08286  -0.07203  -0.07203   0.24406
  Beta  occ. eigenvalues --    0.24406
  Beta virt. eigenvalues --    0.40708   0.40708   0.76768   0.84115   1.15632
  Beta virt. eigenvalues --    1.16777   1.19387   1.19739   1.19739   1.22038
  Beta virt. eigenvalues --    1.22038   1.26873   1.26873   1.36889   1.36889

 Mulliken charges and spin densities:
               1          2
     1  O   -0.354288   0.700087
     2  O   -0.645712   0.299913
     3  O   -0.645712   0.299913
     4  O   -0.354288   0.700087
 Sum of Mulliken charges =  -2.00000   2.00000

 Dipole moment (field-independent basis, Debye):
    X=             -0.0000    Y=             -0.0000    Z=              0.0000  Tot=              0.0000
 Quadrupole moment (field-independent basis, Debye-Ang):
   XX=            -25.0407   YY=            -25.0407   ZZ=            -79.8891
   XY=              0.0000   XZ=              0.0000   YZ=              0.0000

 Normal termination of Gaussian 16 at Sat Dec 31 21:26:01 2022.
