 Gaussian 16, Revision A.03,
 Gaussian 16:  ES64L-G16RevA.03 25-Dec-2016

 -------------------------------------
 #p CCSD(T)/cc-pVTZ Guess=Read SCF=XQC
 -------------------------------------

 --------
 O2_O2_96
 --------
 Symbolic Z-matrix:
 Charge = -2 Multiplicity = 3

                         Standard orientation:
 ---------------------------------------------------------------------
 Center     Atomic      Atomic             Coordinates (Angstroms)
 Number     Number       Type             X           Y           Z
 ---------------------------------------------------------------------
      1          8           0        0.000000    0.000000    1.472188
      2          8           0        0.000000    0.000000    2.824568
      3          8           0        0.000000    0.000000   -2.824568
      4          8           0        0.000000    0.000000   -1.472188
 ---------------------------------------------------------------------

 SCF Done:  E(UHF) =  -298.955681436     A.U. after   11 cycles
 E2 =    -0.1116430802D+01 EUMP2 =    -0.30007211223879D+03
 CCSD(T)
 CCSD(T)= -0.30008528905D+03

 The electronic state is 3-SGG.
 Alpha  occ. eigenvalues --  -20.20791 -20.20791 -20.15757 -20.15756  -1.04399
 Alpha  occ. eigenvalues --   -1.04293  -0.67773  -0.67247  -0.23076  -0.23076
 Alpha  occ. eigenvalues --   -0.22835  -0.22835  -0.17654  -0.15949  -0.01673
 Alpha  occ. eigenvalues --   -0.01673  -0.01316  -0.01316
 Alpha virt. eigenvalues --    0.72813   0.79532   1.11171   1.13972   1.13972
 Alpha virt. eigenvalues --    1.15635   1.17173   1.17173   1.17688   1.22134
 Alpha virt. eigenvalues --    1.22134   1.29436   1.29436   1.37704   1.38161

  Beta  occ. eigenvalues --  -20.16778 -20.16775 -20.13590 -20.13590  -0.96020
  Beta  occ. eigenvalues --   -0.95853  -0.56693  -0.55583  -0.15232  -0.13148
  Beta  occ. eigenvalues --   -0.08582  -0.08582  -0.07654  -0.07654   0.24477
  Beta  occ. eigenvalues --    0.24477
  Beta virt. eigenvalues --    0.39663   0.39663   0.75763   0.83363   1.13174
  Beta virt. eigenvalues --    1.16733   1.18582   1.19679   1.19679   1.21587
  Beta virt. eigenvalues --    1.21587   1.26951   1.26951   1.35222   1.35222

 Mulliken charges and spin densities:
               1          2
     1  O   -0.366048   0.683339
     2  O   -0.633952   0.316661
     3  O   -0.633952   0.316661
     4  O   -0.366048   0.683339
 Sum of Mulliken charges =  -2.00000   2.00000

 Dipole moment (field-independent basis, Debye):
    X=             -0.0000    Y=              0.0000    Z=             -0.0000  Tot=              0.0000
 Quadrupole moment (field-independent basis, Debye-Ang):
   XX=            -25.0233   YY=            -25.0233   ZZ=            -82.7485
   XY=              0.0000   XZ=              0.0000   YZ=              0.0000

 Normal termination of Gaussian 16 at Sat Dec 31 21:39:32 2022.
