 Gaussian 16, Revision A.03,
 Gaussian 16:  ES64L-G16RevA.03 25-Dec-2016

 -------------------------------------
 #p CCSD(T)/cc-pVTZ Guess=Read SCF=XQC
 -------------------------------------

 --------
 O2_O2_45
 --------
 Symbolic Z-matrix:
 Charge = -2 Multiplicity = 3

                         Standard orientation:
 ---------------------------------------------------------------------
 Center     Atomic      Atomic             Coordinates (Angstroms)
 Number     Number       Type             X           Y           Z
 ---------------------------------------------------------------------
      1          8           0        0.000000    0.000000    1.111144
      2          8           0        0.000000    0.000000    2.463524
      3          8           0        0.000000    0.000000   -2.463524
      4          8           0        0.000000    0.000000   -1.111144
 ---------------------------------------------------------------------

 SCF Done:  E(UHF) =  -298.966252000     A.U. after   12 cycles
 E2 =    -0.1055318099D+01 EUMP2 =    -0.30002157009871D+03
 CCSD(T)
 CCSD(T)= -0.30005655342D+03

 The electronic state is 3-SGG.
 Alpha  occ. eigenvalues --  -20.20312 -20.20311 -20.12100 -20.12100  -1.03271
 Alpha  occ. eigenvalues --   -1.02403  -0.66830  -0.63857  -0.22252  -0.22252
 Alpha  occ. eigenvalues --   -0.20889  -0.20889  -0.17885  -0.11179   0.00281
 Alpha  occ. eigenvalues --    0.00281   0.01574   0.01574
 Alpha virt. eigenvalues --    0.76598   0.83414   1.13884   1.13884   1.16192
 Alpha virt. eigenvalues --    1.18190   1.19959   1.19959   1.23733   1.23733
 Alpha virt. eigenvalues --    1.32961   1.37237   1.37237   1.38663   1.40123

  Beta  occ. eigenvalues --  -20.15682 -20.15677 -20.10402 -20.10402  -0.94290
  Beta  occ. eigenvalues --   -0.93458  -0.56603  -0.51732  -0.15576  -0.07936
  Beta  occ. eigenvalues --   -0.07257  -0.07257  -0.05207  -0.05207   0.23444
  Beta  occ. eigenvalues --    0.23444
  Beta virt. eigenvalues --    0.45856   0.45856   0.80290   0.87330   1.17429
  Beta virt. eigenvalues --    1.18570   1.20894   1.20894   1.23768   1.23768
  Beta virt. eigenvalues --    1.27873   1.27873   1.35030   1.38989   1.40524

 Mulliken charges and spin densities:
               1          2
     1  O   -0.294348   0.776054
     2  O   -0.705652   0.223946
     3  O   -0.705652   0.223946
     4  O   -0.294348   0.776054
 Sum of Mulliken charges =  -2.00000   2.00000

 Dipole moment (field-independent basis, Debye):
    X=             -0.0000    Y=              0.0000    Z=              0.0000  Tot=              0.0000
 Quadrupole moment (field-independent basis, Debye-Ang):
   XX=            -25.1102   YY=            -25.1102   ZZ=            -70.7795
   XY=              0.0000   XZ=              0.0000   YZ=              0.0000

 Normal termination of Gaussian 16 at Sat Dec 31 20:38:24 2022.
