 Gaussian 16, Revision A.03,
 Gaussian 16:  ES64L-G16RevA.03 25-Dec-2016

 -------------------------------------
 #p CCSD(T)/cc-pVTZ Guess=Read SCF=XQC
 -------------------------------------

 ---------
 O2_O2_114
 ---------
 Symbolic Z-matrix:
 Charge = -2 Multiplicity = 3

                         Standard orientation:
 ---------------------------------------------------------------------
 Center     Atomic      Atomic             Coordinates (Angstroms)
 Number     Number       Type             X           Y           Z
 ---------------------------------------------------------------------
      1          8           0        0.000000    0.000000    1.599615
      2          8           0        0.000000    0.000000    2.951995
      3          8           0        0.000000    0.000000   -2.951995
      4          8           0        0.000000    0.000000   -1.599615
 ---------------------------------------------------------------------

 SCF Done:  E(UHF) =  -298.954071899     A.U. after   11 cycles
 E2 =    -0.1136117071D+01 EUMP2 =    -0.30009018896975D+03
 CCSD(T)
 CCSD(T)= -0.30009341816D+03

 The electronic state is 3-SGG.
 Alpha  occ. eigenvalues --  -20.20972 -20.20972 -20.16713 -20.16713  -1.04867
 Alpha  occ. eigenvalues --   -1.04816  -0.68283  -0.67998  -0.23492  -0.23492
 Alpha  occ. eigenvalues --   -0.23361  -0.23361  -0.17958  -0.16905  -0.02251
 Alpha  occ. eigenvalues --   -0.02251  -0.02032  -0.02032
 Alpha virt. eigenvalues --    0.71634   0.78383   1.08149   1.14213   1.14213
 Alpha virt. eigenvalues --    1.15551   1.16296   1.16296   1.17116   1.22147
 Alpha virt. eigenvalues --    1.22147   1.27221   1.27221   1.37275   1.37599

  Beta  occ. eigenvalues --  -20.17114 -20.17112 -20.14431 -20.14430  -0.96594
  Beta  occ. eigenvalues --   -0.96493  -0.57124  -0.56434  -0.15500  -0.14190
  Beta  occ. eigenvalues --   -0.09060  -0.09060  -0.08329  -0.08329   0.24496
  Beta  occ. eigenvalues --    0.24496
  Beta virt. eigenvalues --    0.38198   0.38198   0.74396   0.82160   1.10380
  Beta virt. eigenvalues --    1.16648   1.17917   1.19564   1.19564   1.20870
  Beta virt. eigenvalues --    1.20870   1.27208   1.27208   1.32860   1.32860

 Mulliken charges and spin densities:
               1          2
     1  O   -0.382277   0.659837
     2  O   -0.617723   0.340163
     3  O   -0.617723   0.340163
     4  O   -0.382277   0.659837
 Sum of Mulliken charges =  -2.00000   2.00000

 Dipole moment (field-independent basis, Debye):
    X=             -0.0000    Y=              0.0000    Z=              0.0000  Tot=              0.0000
 Quadrupole moment (field-independent basis, Debye-Ang):
   XX=            -24.9997   YY=            -24.9997   ZZ=            -87.7205
   XY=              0.0000   XZ=              0.0000   YZ=              0.0000

 Normal termination of Gaussian 16 at Sat Dec 31 22:01:21 2022.
