 Gaussian 16, Revision A.03,
 Gaussian 16:  ES64L-G16RevA.03 25-Dec-2016

 -------------------------------------
 #p CCSD(T)/cc-pVTZ Guess=Read SCF=XQC
 -------------------------------------

 ---------
 O2_O2_209
 ---------
 Symbolic Z-matrix:
 Charge = -2 Multiplicity = 3

                         Standard orientation:
 ---------------------------------------------------------------------
 Center     Atomic      Atomic             Coordinates (Angstroms)
 Number     Number       Type             X           Y           Z
 ---------------------------------------------------------------------
      1          8           0        0.000000    0.000000    2.272148
      2          8           0        0.000000    0.000000    3.624528
      3          8           0        0.000000    0.000000   -3.624528
      4          8           0        0.000000    0.000000   -2.272148
 ---------------------------------------------------------------------

 SCF Done:  E(UHF) =  -298.958257555     A.U. after   11 cycles
 E2 =    -0.1221811497D+01 EUMP2 =    -0.30018006905138D+03
 CCSD(T)
 CCSD(T)= -0.30012664869D+03

 The electronic state is 3-SGG.
 Alpha  occ. eigenvalues --  -20.22402 -20.22402 -20.20201 -20.20201  -1.07156
 Alpha  occ. eigenvalues --   -1.07155  -0.70749  -0.70739  -0.25695  -0.25695
 Alpha  occ. eigenvalues --   -0.25691  -0.25691  -0.20080  -0.20017  -0.04755
 Alpha  occ. eigenvalues --   -0.04755  -0.04746  -0.04746
 Alpha virt. eigenvalues --    0.71302   0.72751   1.11043   1.13030   1.13030
 Alpha virt. eigenvalues --    1.13106   1.13106   1.13182   1.16343   1.19054
 Alpha virt. eigenvalues --    1.21596   1.21596   1.21810   1.21810   1.35150

  Beta  occ. eigenvalues --  -20.18943 -20.18943 -20.17581 -20.17581  -0.99063
  Beta  occ. eigenvalues --   -0.99049  -0.59462  -0.59353  -0.17563  -0.17475
  Beta  occ. eigenvalues --   -0.11264  -0.11264  -0.10986  -0.10986   0.23819
  Beta  occ. eigenvalues --    0.23819
  Beta virt. eigenvalues --    0.33353   0.33353   0.74365   0.76062   1.13061
  Beta virt. eigenvalues --    1.14717   1.17116   1.17940   1.17940   1.17999
  Beta virt. eigenvalues --    1.17999   1.20176   1.26927   1.26927   1.27153

 Mulliken charges and spin densities:
               1          2
     1  O   -0.431511   0.589653
     2  O   -0.568489   0.410347
     3  O   -0.568489   0.410347
     4  O   -0.431511   0.589653
 Sum of Mulliken charges =  -2.00000   2.00000

 Dipole moment (field-independent basis, Debye):
    X=             -0.0000    Y=              0.0000    Z=             -0.0000  Tot=              0.0000
 Quadrupole moment (field-independent basis, Debye-Ang):
   XX=            -24.9494   YY=            -24.9494   ZZ=           -119.7784
   XY=              0.0000   XZ=              0.0000   YZ=              0.0000

 Normal termination of Gaussian 16 at Sat Dec 31 23:59:55 2022.
