 Gaussian 16, Revision A.03,
 Gaussian 16:  ES64L-G16RevA.03 25-Dec-2016

 -------------------------------------
 #p CCSD(T)/cc-pVTZ Guess=Read SCF=XQC
 -------------------------------------

 ---------
 O2_O2_264
 ---------
 Symbolic Z-matrix:
 Charge = -2 Multiplicity = 3

                         Standard orientation:
 ---------------------------------------------------------------------
 Center     Atomic      Atomic             Coordinates (Angstroms)
 Number     Number       Type             X           Y           Z
 ---------------------------------------------------------------------
      1          8           0        0.000000    0.000000    2.661509
      2          8           0        0.000000    0.000000    4.013889
      3          8           0        0.000000    0.000000   -4.013889
      4          8           0        0.000000    0.000000   -2.661509
 ---------------------------------------------------------------------

 SCF Done:  E(UHF) =  -298.962788723     A.U. after   11 cycles
 E2 =    -0.1264919579D+01 EUMP2 =    -0.30022770830201D+03
 CCSD(T)
 CCSD(T)= -0.30014020044D+03

 The electronic state is 3-SGG.
 Alpha  occ. eigenvalues --  -20.23221 -20.23221 -20.21521 -20.21521  -1.08192
 Alpha  occ. eigenvalues --   -1.08192  -0.71834  -0.71833  -0.26722  -0.26722
 Alpha  occ. eigenvalues --   -0.26721  -0.26721  -0.21145  -0.21138  -0.05838
 Alpha  occ. eigenvalues --   -0.05838  -0.05837  -0.05837
 Alpha virt. eigenvalues --    0.70802   0.70994   1.11072   1.11358   1.12035
 Alpha virt. eigenvalues --    1.12035   1.12040   1.12040   1.16022   1.16280
 Alpha virt. eigenvalues --    1.20625   1.20625   1.20640   1.20640   1.34132

  Beta  occ. eigenvalues --  -20.19855 -20.19854 -20.18806 -20.18805  -1.00113
  Beta  occ. eigenvalues --   -1.00107  -0.60517  -0.60456  -0.18626  -0.18611
  Beta  occ. eigenvalues --   -0.12249  -0.12249  -0.12062  -0.12062   0.23360
  Beta  occ. eigenvalues --    0.23360
  Beta virt. eigenvalues --    0.31633   0.31633   0.73968   0.74194   1.12939
  Beta virt. eigenvalues --    1.13179   1.16891   1.16951   1.16951   1.16957
  Beta virt. eigenvalues --    1.16957   1.17198   1.25948   1.25948   1.25965

 Mulliken charges and spin densities:
               1          2
     1  O   -0.446593   0.569782
     2  O   -0.553407   0.430218
     3  O   -0.553407   0.430218
     4  O   -0.446593   0.569782
 Sum of Mulliken charges =  -2.00000   2.00000

 Dipole moment (field-independent basis, Debye):
    X=             -0.0000    Y=             -0.0000    Z=              0.0000  Tot=              0.0000
 Quadrupole moment (field-independent basis, Debye-Ang):
   XX=            -24.9436   YY=            -24.9436   ZZ=           -142.6153
   XY=              0.0000   XZ=              0.0000   YZ=              0.0000

 Normal termination of Gaussian 16 at Sun Jan  1 01:07:18 2023.
