 Gaussian 16, Revision A.03,
 Gaussian 16:  ES64L-G16RevA.03 25-Dec-2016

 -------------------------------------
 #p CCSD(T)/cc-pVTZ Guess=Read SCF=XQC
 -------------------------------------

 ---------
 O2_O2_154
 ---------
 Symbolic Z-matrix:
 Charge = -2 Multiplicity = 3

                         Standard orientation:
 ---------------------------------------------------------------------
 Center     Atomic      Atomic             Coordinates (Angstroms)
 Number     Number       Type             X           Y           Z
 ---------------------------------------------------------------------
      1          8           0        0.000000    0.000000    1.882787
      2          8           0        0.000000    0.000000    3.235167
      3          8           0        0.000000    0.000000   -3.235167
      4          8           0        0.000000    0.000000   -1.882787
 ---------------------------------------------------------------------

 SCF Done:  E(UHF) =  -298.954279800     A.U. after   11 cycles
 E2 =    -0.1175137129D+01 EUMP2 =    -0.30012941692856D+03
 CCSD(T)
 CCSD(T)= -0.30010925474D+03

 The electronic state is 3-SGG.
 Alpha  occ. eigenvalues --  -20.21516 -20.21516 -20.18436 -20.18436  -1.05892
 Alpha  occ. eigenvalues --   -1.05882  -0.69401  -0.69329  -0.24458  -0.24458
 Alpha  occ. eigenvalues --   -0.24426  -0.24426  -0.18838  -0.18487  -0.03407
 Alpha  occ. eigenvalues --   -0.03407  -0.03341  -0.03341
 Alpha virt. eigenvalues --    0.70813   0.75824   1.07818   1.14023   1.14023
 Alpha virt. eigenvalues --    1.14651   1.14651   1.14963   1.16325   1.22256
 Alpha virt. eigenvalues --    1.22256   1.23954   1.23954   1.30243   1.36393

  Beta  occ. eigenvalues --  -20.17890 -20.17889 -20.15969 -20.15969  -0.97745
  Beta  occ. eigenvalues --   -0.97708  -0.58165  -0.57890  -0.16339  -0.15887
  Beta  occ. eigenvalues --   -0.10064  -0.10064  -0.09604  -0.09604   0.24290
  Beta  occ. eigenvalues --    0.24290
  Beta virt. eigenvalues --    0.35721   0.35721   0.73563   0.79416   1.10093
  Beta virt. eigenvalues --    1.16132   1.17079   1.19008   1.19008   1.19446
  Beta virt. eigenvalues --    1.19446   1.27554   1.27554   1.29384   1.29384

 Mulliken charges and spin densities:
               1          2
     1  O   -0.408541   0.621718
     2  O   -0.591459   0.378282
     3  O   -0.591459   0.378282
     4  O   -0.408541   0.621718
 Sum of Mulliken charges =  -2.00000   2.00000

 Dipole moment (field-independent basis, Debye):
    X=             -0.0000    Y=             -0.0000    Z=              0.0000  Tot=              0.0000
 Quadrupole moment (field-independent basis, Debye-Ang):
   XX=            -24.9669   YY=            -24.9669   ZZ=           -100.0442
   XY=              0.0000   XZ=              0.0000   YZ=              0.0000

 Normal termination of Gaussian 16 at Sat Dec 31 22:51:39 2022.
