 Gaussian 16, Revision A.03,
 Gaussian 16:  ES64L-G16RevA.03 25-Dec-2016

 -------------------------------------
 #p CCSD(T)/cc-pVTZ Guess=Read SCF=XQC
 -------------------------------------

 ---------
 O2_O2_121
 ---------
 Symbolic Z-matrix:
 Charge = -2 Multiplicity = 3

                         Standard orientation:
 ---------------------------------------------------------------------
 Center     Atomic      Atomic             Coordinates (Angstroms)
 Number     Number       Type             X           Y           Z
 ---------------------------------------------------------------------
      1          8           0        0.000000    0.000000    1.649170
      2          8           0        0.000000    0.000000    3.001550
      3          8           0        0.000000    0.000000   -3.001550
      4          8           0        0.000000    0.000000   -1.649170
 ---------------------------------------------------------------------

 SCF Done:  E(UHF) =  -298.953791731     A.U. after   11 cycles
 E2 =    -0.1143390350D+01 EUMP2 =    -0.30009718208109D+03
 CCSD(T)
 CCSD(T)= -0.30009640864D+03

 The electronic state is 3-SGG.
 Alpha  occ. eigenvalues --  -20.21054 -20.21054 -20.17050 -20.17050  -1.05049
 Alpha  occ. eigenvalues --   -1.05011  -0.68483  -0.68259  -0.23660  -0.23660
 Alpha  occ. eigenvalues --   -0.23556  -0.23556  -0.18098  -0.17226  -0.02465
 Alpha  occ. eigenvalues --   -0.02465  -0.02285  -0.02285
 Alpha virt. eigenvalues --    0.71298   0.77938   1.07530   1.14248   1.14248
 Alpha virt. eigenvalues --    1.15491   1.15975   1.15975   1.16931   1.22182
 Alpha virt. eigenvalues --    1.22182   1.26491   1.26491   1.37097   1.37388

  Beta  occ. eigenvalues --  -20.17247 -20.17246 -20.14730 -20.14729  -0.96808
  Beta  occ. eigenvalues --   -0.96724  -0.57304  -0.56725  -0.15630  -0.14539
  Beta  occ. eigenvalues --   -0.09242  -0.09242  -0.08573  -0.08573   0.24479
  Beta  occ. eigenvalues --    0.24479
  Beta virt. eigenvalues --    0.37696   0.37696   0.74018   0.81690   1.09804
  Beta virt. eigenvalues --    1.16594   1.17721   1.19497   1.19497   1.20600
  Beta virt. eigenvalues --    1.20600   1.27314   1.27314   1.32081   1.32081

 Mulliken charges and spin densities:
               1          2
     1  O   -0.387727   0.651890
     2  O   -0.612273   0.348110
     3  O   -0.612273   0.348110
     4  O   -0.387727   0.651890
 Sum of Mulliken charges =  -2.00000   2.00000

 Dipole moment (field-independent basis, Debye):
    X=             -0.0000    Y=              0.0000    Z=              0.0000  Tot=              0.0000
 Quadrupole moment (field-independent basis, Debye-Ang):
   XX=            -24.9921   YY=            -24.9921   ZZ=            -89.7507
   XY=              0.0000   XZ=              0.0000   YZ=              0.0000

 Normal termination of Gaussian 16 at Sat Dec 31 22:09:54 2022.
