 Gaussian 16, Revision A.03,
 Gaussian 16:  ES64L-G16RevA.03 25-Dec-2016

 -------------------------------------
 #p CCSD(T)/cc-pVTZ Guess=Read SCF=XQC
 -------------------------------------

 --------
 O2_O2_60
 --------
 Symbolic Z-matrix:
 Charge = -2 Multiplicity = 3

                         Standard orientation:
 ---------------------------------------------------------------------
 Center     Atomic      Atomic             Coordinates (Angstroms)
 Number     Number       Type             X           Y           Z
 ---------------------------------------------------------------------
      1          8           0        0.000000    0.000000    1.217333
      2          8           0        0.000000    0.000000    2.569713
      3          8           0        0.000000    0.000000   -2.569713
      4          8           0        0.000000    0.000000   -1.217333
 ---------------------------------------------------------------------

 SCF Done:  E(UHF) =  -298.963098099     A.U. after   12 cycles
 E2 =    -0.1073436218D+01 EUMP2 =    -0.30003653431736D+03
 CCSD(T)
 CCSD(T)= -0.30006660227D+03

 The electronic state is 3-SGG.
 Alpha  occ. eigenvalues --  -20.20495 -20.20495 -20.13359 -20.13359  -1.03536
 Alpha  occ. eigenvalues --   -1.03072  -0.66936  -0.65150  -0.22399  -0.22399
 Alpha  occ. eigenvalues --   -0.21585  -0.21585  -0.17545  -0.13082  -0.00356
 Alpha  occ. eigenvalues --   -0.00356   0.00536   0.00536
 Alpha virt. eigenvalues --    0.75573   0.82089   1.13519   1.13519   1.15903
 Alpha virt. eigenvalues --    1.17895   1.19090   1.19090   1.22943   1.22943
 Alpha virt. eigenvalues --    1.25277   1.34908   1.34908   1.38438   1.39378

  Beta  occ. eigenvalues --  -20.16066 -20.16062 -20.11503 -20.11503  -0.94792
  Beta  occ. eigenvalues --   -0.94287  -0.56289  -0.53186  -0.15224  -0.10011
  Beta  occ. eigenvalues --   -0.07624  -0.07624  -0.06035  -0.06035   0.23974
  Beta  occ. eigenvalues --    0.23974
  Beta virt. eigenvalues --    0.43635   0.43635   0.79058   0.85994   1.17058
  Beta virt. eigenvalues --    1.18318   1.20177   1.20177   1.23094   1.23094
  Beta virt. eigenvalues --    1.27194   1.27194   1.27428   1.38801   1.39893

 Mulliken charges and spin densities:
               1          2
     1  O   -0.320761   0.745103
     2  O   -0.679239   0.254897
     3  O   -0.679239   0.254897
     4  O   -0.320761   0.745103
 Sum of Mulliken charges =  -2.00000   2.00000

 Dipole moment (field-independent basis, Debye):
    X=             -0.0000    Y=              0.0000    Z=             -0.0000  Tot=              0.0000
 Quadrupole moment (field-independent basis, Debye-Ang):
   XX=            -25.0859   YY=            -25.0859   ZZ=            -73.9323
   XY=              0.0000   XZ=              0.0000   YZ=              0.0000

 Normal termination of Gaussian 16 at Sat Dec 31 20:56:23 2022.
