 Gaussian 16, Revision A.03,
 Gaussian 16:  ES64L-G16RevA.03 25-Dec-2016

 -------------------------------------
 #p CCSD(T)/cc-pVTZ Guess=Read SCF=XQC
 -------------------------------------

 ---------
 O2_O2_194
 ---------
 Symbolic Z-matrix:
 Charge = -2 Multiplicity = 3

                         Standard orientation:
 ---------------------------------------------------------------------
 Center     Atomic      Atomic             Coordinates (Angstroms)
 Number     Number       Type             X           Y           Z
 ---------------------------------------------------------------------
      1          8           0        0.000000    0.000000    2.165958
      2          8           0        0.000000    0.000000    3.518338
      3          8           0        0.000000    0.000000   -3.518338
      4          8           0        0.000000    0.000000   -2.165958
 ---------------------------------------------------------------------

 SCF Done:  E(UHF) =  -298.957010665     A.U. after   11 cycles
 E2 =    -0.1209594218D+01 EUMP2 =    -0.30016660488274D+03
 CCSD(T)
 CCSD(T)= -0.30012233712D+03

 The electronic state is 3-SGG.
 Alpha  occ. eigenvalues --  -20.22160 -20.22160 -20.19772 -20.19772  -1.06833
 Alpha  occ. eigenvalues --   -1.06831  -0.70407  -0.70391  -0.25376  -0.25376
 Alpha  occ. eigenvalues --   -0.25369  -0.25369  -0.19754  -0.19650  -0.04414
 Alpha  occ. eigenvalues --   -0.04414  -0.04398  -0.04398
 Alpha virt. eigenvalues --    0.71254   0.73467   1.10515   1.13321   1.13321
 Alpha virt. eigenvalues --    1.13463   1.13463   1.13764   1.16265   1.20835
 Alpha virt. eigenvalues --    1.21844   1.21844   1.22243   1.22243   1.35466

  Beta  occ. eigenvalues --  -20.18666 -20.18665 -20.17186 -20.17186  -0.98732
  Beta  occ. eigenvalues --   -0.98715  -0.59132  -0.58997  -0.17240  -0.17099
  Beta  occ. eigenvalues --   -0.10959  -0.10959  -0.10643  -0.10643   0.23952
  Beta  occ. eigenvalues --    0.23952
  Beta virt. eigenvalues --    0.33918   0.33918   0.74249   0.76842   1.12615
  Beta virt. eigenvalues --    1.15171   1.17002   1.18234   1.18234   1.18342
  Beta virt. eigenvalues --    1.18342   1.22041   1.27176   1.27176   1.27598

 Mulliken charges and spin densities:
               1          2
     1  O   -0.426260   0.596788
     2  O   -0.573740   0.403212
     3  O   -0.573740   0.403212
     4  O   -0.426260   0.596788
 Sum of Mulliken charges =  -2.00000   2.00000

 Dipole moment (field-independent basis, Debye):
    X=             -0.0000    Y=             -0.0000    Z=              0.0000  Tot=              0.0000
 Quadrupole moment (field-independent basis, Debye-Ang):
   XX=            -24.9523   YY=            -24.9523   ZZ=           -114.0850
   XY=              0.0000   XZ=              0.0000   YZ=              0.0000

 Normal termination of Gaussian 16 at Sat Dec 31 23:41:09 2022.
