 Gaussian 16, Revision A.03,
 Gaussian 16:  ES64L-G16RevA.03 25-Dec-2016

 -------------------------------------
 #p CCSD(T)/cc-pVTZ Guess=Read SCF=XQC
 -------------------------------------

 ---------
 O2_O2_193
 ---------
 Symbolic Z-matrix:
 Charge = -2 Multiplicity = 3

                         Standard orientation:
 ---------------------------------------------------------------------
 Center     Atomic      Atomic             Coordinates (Angstroms)
 Number     Number       Type             X           Y           Z
 ---------------------------------------------------------------------
      1          8           0        0.000000    0.000000    2.158879
      2          8           0        0.000000    0.000000    3.511259
      3          8           0        0.000000    0.000000   -3.511259
      4          8           0        0.000000    0.000000   -2.158879
 ---------------------------------------------------------------------

 SCF Done:  E(UHF) =  -298.956929575     A.U. after   11 cycles
 E2 =    -0.1208769022D+01 EUMP2 =    -0.30016569859683D+03
 CCSD(T)
 CCSD(T)= -0.30012203896D+03

 The electronic state is 3-SGG.
 Alpha  occ. eigenvalues --  -20.22143 -20.22143 -20.19742 -20.19742  -1.06811
 Alpha  occ. eigenvalues --   -1.06809  -0.70384  -0.70367  -0.25355  -0.25355
 Alpha  occ. eigenvalues --   -0.25347  -0.25347  -0.19732  -0.19625  -0.04391
 Alpha  occ. eigenvalues --   -0.04391  -0.04374  -0.04374
 Alpha virt. eigenvalues --    0.71247   0.73519   1.10467   1.13340   1.13340
 Alpha virt. eigenvalues --    1.13488   1.13488   1.13802   1.16260   1.20981
 Alpha virt. eigenvalues --    1.21860   1.21860   1.22275   1.22275   1.35487

  Beta  occ. eigenvalues --  -20.18647 -20.18647 -20.17159 -20.17159  -0.98709
  Beta  occ. eigenvalues --   -0.98692  -0.59109  -0.58972  -0.17218  -0.17073
  Beta  occ. eigenvalues --   -0.10938  -0.10938  -0.10620  -0.10620   0.23961
  Beta  occ. eigenvalues --    0.23961
  Beta virt. eigenvalues --    0.33957   0.33957   0.74236   0.76898   1.12572
  Beta virt. eigenvalues --    1.15200   1.16995   1.18254   1.18254   1.18366
  Beta virt. eigenvalues --    1.18366   1.22193   1.27191   1.27191   1.27631

 Mulliken charges and spin densities:
               1          2
     1  O   -0.425888   0.597299
     2  O   -0.574112   0.402701
     3  O   -0.574112   0.402701
     4  O   -0.425888   0.597299
 Sum of Mulliken charges =  -2.00000   2.00000

 Dipole moment (field-independent basis, Debye):
    X=             -0.0000    Y=             -0.0000    Z=             -0.0000  Tot=              0.0000
 Quadrupole moment (field-independent basis, Debye-Ang):
   XX=            -24.9526   YY=            -24.9526   ZZ=           -113.7137
   XY=              0.0000   XZ=              0.0000   YZ=              0.0000

 3246\PMP3-0=-300.158868\MP4SDQ=-299.8886115\CCSD=-300.0092661\CCSD(T)=
 Normal termination of Gaussian 16 at Sat Dec 31 23:39:47 2022.
