 Gaussian 16, Revision A.03,
 Gaussian 16:  ES64L-G16RevA.03 25-Dec-2016

 -------------------------------------
 #p CCSD(T)/cc-pVTZ Guess=Read SCF=XQC
 -------------------------------------

 --------
 O2_O2_36
 --------
 Symbolic Z-matrix:
 Charge = -2 Multiplicity = 3

                         Standard orientation:
 ---------------------------------------------------------------------
 Center     Atomic      Atomic             Coordinates (Angstroms)
 Number     Number       Type             X           Y           Z
 ---------------------------------------------------------------------
      1          8           0        0.000000    0.000000    1.047430
      2          8           0        0.000000    0.000000    2.399810
      3          8           0        0.000000    0.000000   -2.399810
      4          8           0        0.000000    0.000000   -1.047430
 ---------------------------------------------------------------------

 SCF Done:  E(UHF) =  -298.966598927     A.U. after   12 cycles
 E2 =    -0.1045086101D+01 EUMP2 =    -0.30001168502735D+03
 CCSD(T)
 CCSD(T)= -0.30004874788D+03

 The electronic state is 3-SGG.
 Alpha  occ. eigenvalues --  -20.20150 -20.20149 -20.11241 -20.11241  -1.03184
 Alpha  occ. eigenvalues --   -1.01913  -0.66932  -0.62889  -0.22244  -0.22244
 Alpha  occ. eigenvalues --   -0.20377  -0.20377  -0.18267  -0.09681   0.00693
 Alpha  occ. eigenvalues --    0.00693   0.02309   0.02309
 Alpha virt. eigenvalues --    0.77173   0.84351   1.14358   1.14358   1.16405
 Alpha virt. eigenvalues --    1.18267   1.20514   1.20514   1.24365   1.24365
 Alpha virt. eigenvalues --    1.36853   1.38563   1.38563   1.38760   1.41407

  Beta  occ. eigenvalues --  -20.15401 -20.15395 -20.09645 -20.09645  -0.94024
  Beta  occ. eigenvalues --   -0.92886  -0.57080  -0.50664  -0.15923  -0.07067
  Beta  occ. eigenvalues --   -0.07067  -0.06310  -0.04646  -0.04646   0.22985
  Beta  occ. eigenvalues --    0.22985
  Beta virt. eigenvalues --    0.47394   0.47394   0.80980   0.88261   1.17733
  Beta virt. eigenvalues --    1.18605   1.21515   1.21515   1.24201   1.24201
  Beta virt. eigenvalues --    1.28521   1.28521   1.38686   1.39054   1.41824

 Mulliken charges and spin densities:
               1          2
     1  O   -0.275745   0.795379
     2  O   -0.724255   0.204621
     3  O   -0.724255   0.204621
     4  O   -0.275745   0.795379
 Sum of Mulliken charges =  -2.00000   2.00000

 Dipole moment (field-independent basis, Debye):
    X=             -0.0000    Y=              0.0000    Z=              0.0000  Tot=              0.0000
 Quadrupole moment (field-independent basis, Debye-Ang):
   XX=            -25.1185   YY=            -25.1185   ZZ=            -69.0779
   XY=              0.0000   XZ=              0.0000   YZ=              0.0000

 787\PMP3-0=-299.9773691\MP4SDQ=-299.9855865\CCSD=-299.9784105\CCSD(T)=
 Normal termination of Gaussian 16 at Sat Dec 31 20:27:41 2022.
