 Gaussian 16, Revision A.03,
 Gaussian 16:  ES64L-G16RevA.03 25-Dec-2016

 -------------------------------------
 #p CCSD(T)/cc-pVTZ Guess=Read SCF=XQC
 -------------------------------------

 --------
 O2_O2_22
 --------
 Symbolic Z-matrix:
 Charge = -2 Multiplicity = 3

                         Standard orientation:
 ---------------------------------------------------------------------
 Center     Atomic      Atomic             Coordinates (Angstroms)
 Number     Number       Type             X           Y           Z
 ---------------------------------------------------------------------
      1          8           0        0.000000    0.000000    0.948320
      2          8           0        0.000000    0.000000    2.300700
      3          8           0        0.000000    0.000000   -2.300700
      4          8           0        0.000000    0.000000   -0.948320
 ---------------------------------------------------------------------

 SCF Done:  E(UHF) =  -298.960633797     A.U. after   12 cycles
 E2 =    -0.1031404241D+01 EUMP2 =    -0.29999203803749D+03
 CCSD(T)
 CCSD(T)= -0.30003073045D+03

 The electronic state is 3-SGG.
 Alpha  occ. eigenvalues --  -20.19797 -20.19796 -20.09699 -20.09698  -1.03293
 Alpha  occ. eigenvalues --   -1.00959  -0.67524  -0.60995  -0.22465  -0.22465
 Alpha  occ. eigenvalues --   -0.19380  -0.19380  -0.19194  -0.06552   0.01384
 Alpha  occ. eigenvalues --    0.01384   0.03673   0.03673
 Alpha virt. eigenvalues --    0.77998   0.86154   1.15403   1.15403   1.16812
 Alpha virt. eigenvalues --    1.18336   1.21457   1.21457   1.25634   1.25634
 Alpha virt. eigenvalues --    1.38596   1.38823   1.40468   1.40468   1.46684

  Beta  occ. eigenvalues --  -20.14878 -20.14869 -20.08265 -20.08264  -0.93760
  Beta  occ. eigenvalues --   -0.91855  -0.58523  -0.48629  -0.16673  -0.06873
  Beta  occ. eigenvalues --   -0.06873  -0.03639  -0.03639  -0.02921   0.21986
  Beta  occ. eigenvalues --    0.21986
  Beta virt. eigenvalues --    0.50133   0.50133   0.81959   0.90019   1.18396
  Beta virt. eigenvalues --    1.18563   1.22618   1.22618   1.24953   1.24953
  Beta virt. eigenvalues --    1.29958   1.29958   1.39040   1.39731   1.46669

 Mulliken charges and spin densities:
               1          2
     1  O   -0.242030   0.824839
     2  O   -0.757970   0.175161
     3  O   -0.757970   0.175161
     4  O   -0.242030   0.824839
 Sum of Mulliken charges =  -2.00000   2.00000

 Dipole moment (field-independent basis, Debye):
    X=             -0.0000    Y=              0.0000    Z=              0.0000  Tot=              0.0000
 Quadrupole moment (field-independent basis, Debye-Ang):
   XX=            -25.1113   YY=            -25.1113   ZZ=            -66.7895
   XY=              0.0000   XZ=              0.0000   YZ=              0.0000

 9303\PMP3-0=-299.9589184\MP4SDQ=-299.9722687\CCSD=-299.966479\CCSD(T)=
 Normal termination of Gaussian 16 at Sat Dec 31 20:11:09 2022.
