 Gaussian 16, Revision A.03,
 Gaussian 16:  ES64L-G16RevA.03 25-Dec-2016

 -------------------------------------
 #p CCSD(T)/cc-pVTZ Guess=Read SCF=XQC
 -------------------------------------

 ---------
 O2_O2_292
 ---------
 Symbolic Z-matrix:
 Charge = -2 Multiplicity = 3

                         Standard orientation:
 ---------------------------------------------------------------------
 Center     Atomic      Atomic             Coordinates (Angstroms)
 Number     Number       Type             X           Y           Z
 ---------------------------------------------------------------------
      1          8           0        0.000000    0.000000    2.859729
      2          8           0        0.000000    0.000000    4.212109
      3          8           0        0.000000    0.000000   -4.212109
      4          8           0        0.000000    0.000000   -2.859729
 ---------------------------------------------------------------------

 SCF Done:  E(UHF) =  -298.964867875     A.U. after   10 cycles
 E2 =    -0.1286322810D+01 EUMP2 =    -0.30025119068411D+03
 CCSD(T)
 CCSD(T)= -0.30014597021D+03

 The electronic state is 3-SGG.
 Alpha  occ. eigenvalues --  -20.23585 -20.23585 -20.22072 -20.22072  -1.08639
 Alpha  occ. eigenvalues --   -1.08639  -0.72297  -0.72297  -0.27165  -0.27165
 Alpha  occ. eigenvalues --   -0.27165  -0.27165  -0.21607  -0.21606  -0.06300
 Alpha  occ. eigenvalues --   -0.06300  -0.06300  -0.06300
 Alpha virt. eigenvalues --    0.70384   0.70437   1.10694   1.10773   1.11594
 Alpha virt. eigenvalues --    1.11594   1.11595   1.11595   1.15600   1.15663
 Alpha virt. eigenvalues --    1.20175   1.20175   1.20178   1.20178   1.33694

  Beta  occ. eigenvalues --  -20.20253 -20.20253 -20.19320 -20.19320  -1.00563
  Beta  occ. eigenvalues --   -1.00558  -0.60971  -0.60921  -0.19089  -0.19081
  Beta  occ. eigenvalues --   -0.12676  -0.12676  -0.12520  -0.12520   0.23153
  Beta  occ. eigenvalues --    0.23153
  Beta virt. eigenvalues --    0.30917   0.30917   0.73559   0.73623   1.12560
  Beta virt. eigenvalues --    1.12634   1.16474   1.16516   1.16516   1.16518
  Beta virt. eigenvalues --    1.16518   1.16553   1.25494   1.25494   1.25498

 Mulliken charges and spin densities:
               1          2
     1  O   -0.452426   0.562211
     2  O   -0.547574   0.437789
     3  O   -0.547574   0.437789
     4  O   -0.452426   0.562211
 Sum of Mulliken charges =  -2.00000   2.00000

 Dipole moment (field-independent basis, Debye):
    X=             -0.0000    Y=             -0.0000    Z=             -0.0000  Tot=              0.0000
 Quadrupole moment (field-independent basis, Debye-Ang):
   XX=            -24.9419   YY=            -24.9419   ZZ=           -155.4150
   XY=              0.0000   XZ=              0.0000   YZ=              0.0000

 Normal termination of Gaussian 16 at Sun Jan  1 01:41:00 2023.
