 Gaussian 16, Revision A.03,
 Gaussian 16:  ES64L-G16RevA.03 25-Dec-2016

 -------------------------------------
 #p CCSD(T)/cc-pVTZ Guess=Read SCF=XQC
 -------------------------------------

 ---------
 O2_O2_296
 ---------
 Symbolic Z-matrix:
 Charge = -2 Multiplicity = 3

                         Standard orientation:
 ---------------------------------------------------------------------
 Center     Atomic      Atomic             Coordinates (Angstroms)
 Number     Number       Type             X           Y           Z
 ---------------------------------------------------------------------
      1          8           0        0.000000    0.000000    2.888046
      2          8           0        0.000000    0.000000    4.240426
      3          8           0        0.000000    0.000000   -4.240426
      4          8           0        0.000000    0.000000   -2.888046
 ---------------------------------------------------------------------

 SCF Done:  E(UHF) =  -298.965149756     A.U. after   10 cycles
 E2 =    -0.1289363456D+01 EUMP2 =    -0.30025451321146D+03
 CCSD(T)
 CCSD(T)= -0.30014674219D+03

 The electronic state is 3-SGG.
 Alpha  occ. eigenvalues --  -20.23634 -20.23634 -20.22145 -20.22145  -1.08698
 Alpha  occ. eigenvalues --   -1.08698  -0.72359  -0.72359  -0.27225  -0.27225
 Alpha  occ. eigenvalues --   -0.27225  -0.27225  -0.21669  -0.21668  -0.06362
 Alpha  occ. eigenvalues --   -0.06362  -0.06362  -0.06362
 Alpha virt. eigenvalues --    0.70324   0.70367   1.10636   1.10701   1.11535
 Alpha virt. eigenvalues --    1.11535   1.11536   1.11536   1.15538   1.15588
 Alpha virt. eigenvalues --    1.20114   1.20114   1.20117   1.20117   1.33635

  Beta  occ. eigenvalues --  -20.20307 -20.20307 -20.19389 -20.19389  -1.00623
  Beta  occ. eigenvalues --   -1.00619  -0.61031  -0.60983  -0.19151  -0.19144
  Beta  occ. eigenvalues --   -0.12733  -0.12733  -0.12581  -0.12581   0.23124
  Beta  occ. eigenvalues --    0.23124
  Beta virt. eigenvalues --    0.30821   0.30821   0.73499   0.73552   1.12503
  Beta virt. eigenvalues --    1.12566   1.16411   1.16458   1.16458   1.16460
  Beta virt. eigenvalues --    1.16460   1.16476   1.25433   1.25433   1.25436

 Mulliken charges and spin densities:
               1          2
     1  O   -0.453181   0.561232
     2  O   -0.546819   0.438768
     3  O   -0.546819   0.438768
     4  O   -0.453181   0.561232
 Sum of Mulliken charges =  -2.00000   2.00000

 Dipole moment (field-independent basis, Debye):
    X=             -0.0000    Y=              0.0000    Z=              0.0000  Tot=              0.0000
 Quadrupole moment (field-independent basis, Debye-Ang):
   XX=            -24.9417   YY=            -24.9417   ZZ=           -157.3076
   XY=              0.0000   XZ=              0.0000   YZ=              0.0000

 Normal termination of Gaussian 16 at Sun Jan  1 01:45:51 2023.
