 Gaussian 16, Revision A.03,
 Gaussian 16:  ES64L-G16RevA.03 25-Dec-2016

 -------------------------------------
 #p CCSD(T)/cc-pVTZ Guess=Read SCF=XQC
 -------------------------------------

 ---------
 O2_O2_263
 ---------
 Symbolic Z-matrix:
 Charge = -2 Multiplicity = 3

                         Standard orientation:
 ---------------------------------------------------------------------
 Center     Atomic      Atomic             Coordinates (Angstroms)
 Number     Number       Type             X           Y           Z
 ---------------------------------------------------------------------
      1          8           0        0.000000    0.000000    2.654429
      2          8           0        0.000000    0.000000    4.006809
      3          8           0        0.000000    0.000000   -4.006809
      4          8           0        0.000000    0.000000   -2.654429
 ---------------------------------------------------------------------

 SCF Done:  E(UHF) =  -298.962711054     A.U. after   11 cycles
 E2 =    -0.1264150576D+01 EUMP2 =    -0.30022686162992D+03
 CCSD(T)
 CCSD(T)= -0.30013998177D+03

 The electronic state is 3-SGG.
 Alpha  occ. eigenvalues --  -20.23207 -20.23207 -20.21500 -20.21500  -1.08175
 Alpha  occ. eigenvalues --   -1.08175  -0.71816  -0.71816  -0.26705  -0.26705
 Alpha  occ. eigenvalues --   -0.26705  -0.26705  -0.21127  -0.21120  -0.05820
 Alpha  occ. eigenvalues --   -0.05820  -0.05820  -0.05820
 Alpha virt. eigenvalues --    0.70816   0.71017   1.11083   1.11383   1.12051
 Alpha virt. eigenvalues --    1.12051   1.12057   1.12057   1.16036   1.16307
 Alpha virt. eigenvalues --    1.20642   1.20642   1.20658   1.20658   1.34149

  Beta  occ. eigenvalues --  -20.19840 -20.19839 -20.18786 -20.18786  -1.00096
  Beta  occ. eigenvalues --   -1.00090  -0.60500  -0.60438  -0.18609  -0.18593
  Beta  occ. eigenvalues --   -0.12233  -0.12233  -0.12044  -0.12044   0.23367
  Beta  occ. eigenvalues --    0.23367
  Beta virt. eigenvalues --    0.31660   0.31660   0.73982   0.74218   1.12952
  Beta virt. eigenvalues --    1.13201   1.16904   1.16968   1.16968   1.16974
  Beta virt. eigenvalues --    1.16974   1.17226   1.25965   1.25965   1.25983

 Mulliken charges and spin densities:
               1          2
     1  O   -0.446365   0.570078
     2  O   -0.553635   0.429922
     3  O   -0.553635   0.429922
     4  O   -0.446365   0.570078
 Sum of Mulliken charges =  -2.00000   2.00000

 Dipole moment (field-independent basis, Debye):
    X=             -0.0000    Y=              0.0000    Z=             -0.0000  Tot=              0.0000
 Quadrupole moment (field-independent basis, Debye-Ang):
   XX=            -24.9436   YY=            -24.9436   ZZ=           -142.1727
   XY=              0.0000   XZ=              0.0000   YZ=              0.0000

 Normal termination of Gaussian 16 at Sun Jan  1 01:06:04 2023.
