 Gaussian 16, Revision A.03,
 Gaussian 16:  ES64L-G16RevA.03 25-Dec-2016

 -------------------------------------
 #p CCSD(T)/cc-pVTZ Guess=Read SCF=XQC
 -------------------------------------

 ---------
 O2_O2_126
 ---------
 Symbolic Z-matrix:
 Charge = -2 Multiplicity = 3

                         Standard orientation:
 ---------------------------------------------------------------------
 Center     Atomic      Atomic             Coordinates (Angstroms)
 Number     Number       Type             X           Y           Z
 ---------------------------------------------------------------------
      1          8           0        0.000000    0.000000    1.684566
      2          8           0        0.000000    0.000000    3.036946
      3          8           0        0.000000    0.000000   -3.036946
      4          8           0        0.000000    0.000000   -1.684566
 ---------------------------------------------------------------------

 SCF Done:  E(UHF) =  -298.953690899     A.U. after   11 cycles
 E2 =    -0.1148459701D+01 EUMP2 =    -0.30010215060014D+03
 CCSD(T)
 CCSD(T)= -0.30009848727D+03

 The electronic state is 3-SGG.
 Alpha  occ. eigenvalues --  -20.21117 -20.21117 -20.17281 -20.17281  -1.05179
 Alpha  occ. eigenvalues --   -1.05148  -0.68625  -0.68437  -0.23781  -0.23781
 Alpha  occ. eigenvalues --   -0.23694  -0.23694  -0.18204  -0.17442  -0.02614
 Alpha  occ. eigenvalues --   -0.02614  -0.02459  -0.02459
 Alpha virt. eigenvalues --    0.71111   0.77619   1.07262   1.14253   1.14253
 Alpha virt. eigenvalues --    1.15438   1.15754   1.15754   1.16810   1.22209
 Alpha virt. eigenvalues --    1.22209   1.26014   1.26014   1.36960   1.37241

  Beta  occ. eigenvalues --  -20.17343 -20.17342 -20.14935 -20.14934  -0.96958
  Beta  occ. eigenvalues --   -0.96884  -0.57435  -0.56922  -0.15729  -0.14772
  Beta  occ. eigenvalues --   -0.09371  -0.09371  -0.08741  -0.08741   0.24460
  Beta  occ. eigenvalues --    0.24460
  Beta virt. eigenvalues --    0.37359   0.37359   0.73811   0.81351   1.09555
  Beta virt. eigenvalues --    1.16545   1.17595   1.19440   1.19440   1.20413
  Beta virt. eigenvalues --    1.20413   1.27382   1.27382   1.31573   1.31573

 Mulliken charges and spin densities:
               1          2
     1  O   -0.391368   0.646582
     2  O   -0.608632   0.353418
     3  O   -0.608632   0.353418
     4  O   -0.391368   0.646582
 Sum of Mulliken charges =  -2.00000   2.00000

 Dipole moment (field-independent basis, Debye):
    X=             -0.0000    Y=              0.0000    Z=              0.0000  Tot=              0.0000
 Quadrupole moment (field-independent basis, Debye-Ang):
   XX=            -24.9872   YY=            -24.9872   ZZ=            -91.2338
   XY=              0.0000   XZ=              0.0000   YZ=              0.0000

 Normal termination of Gaussian 16 at Sat Dec 31 22:16:08 2022.
