 Gaussian 16, Revision A.03,
 Gaussian 16:  ES64L-G16RevA.03 25-Dec-2016

 -------------------------------------
 #p CCSD(T)/cc-pVTZ Guess=Read SCF=XQC
 -------------------------------------

 --------
 O2_O2_86
 --------
 Symbolic Z-matrix:
 Charge = -2 Multiplicity = 3

                         Standard orientation:
 ---------------------------------------------------------------------
 Center     Atomic      Atomic             Coordinates (Angstroms)
 Number     Number       Type             X           Y           Z
 ---------------------------------------------------------------------
      1          8           0        0.000000    0.000000    1.401395
      2          8           0        0.000000    0.000000    2.753775
      3          8           0        0.000000    0.000000   -2.753775
      4          8           0        0.000000    0.000000   -1.401395
 ---------------------------------------------------------------------

 SCF Done:  E(UHF) =  -298.957213612     A.U. after   12 cycles
 E2 =    -0.1104891140D+01 EUMP2 =    -0.30006210475109D+03
 CCSD(T)
 CCSD(T)= -0.30008048715D+03

 The electronic state is 3-SGG.
 Alpha  occ. eigenvalues --  -20.20707 -20.20707 -20.15163 -20.15163  -1.04144
 Alpha  occ. eigenvalues --   -1.03986  -0.67502  -0.66763  -0.22860  -0.22860
 Alpha  occ. eigenvalues --   -0.22522  -0.22522  -0.17537  -0.15311  -0.01332
 Alpha  occ. eigenvalues --   -0.01332  -0.00868  -0.00868
 Alpha virt. eigenvalues --    0.73583   0.80190   1.13740   1.13778   1.13778
 Alpha virt. eigenvalues --    1.15667   1.17686   1.17686   1.18143   1.22225
 Alpha virt. eigenvalues --    1.22225   1.30857   1.30857   1.37928   1.38484

  Beta  occ. eigenvalues --  -20.16592 -20.16589 -20.13072 -20.13072  -0.95688
  Beta  occ. eigenvalues --   -0.95463  -0.56493  -0.55030  -0.15141  -0.12451
  Beta  occ. eigenvalues --   -0.08313  -0.08313  -0.07245  -0.07245   0.24414
  Beta  occ. eigenvalues --    0.24414
  Beta virt. eigenvalues --    0.40607   0.40607   0.76674   0.84046   1.15406
  Beta virt. eigenvalues --    1.16772   1.19279   1.19733   1.19733   1.21996
  Beta virt. eigenvalues --    1.21996   1.26876   1.26876   1.36732   1.36732

 Mulliken charges and spin densities:
               1          2
     1  O   -0.355422   0.698486
     2  O   -0.644578   0.301514
     3  O   -0.644578   0.301514
     4  O   -0.355422   0.698486
 Sum of Mulliken charges =  -2.00000   2.00000

 Dipole moment (field-independent basis, Debye):
    X=             -0.0000    Y=              0.0000    Z=              0.0000  Tot=              0.0000
 Quadrupole moment (field-independent basis, Debye-Ang):
   XX=            -25.0391   YY=            -25.0391   ZZ=            -80.1433
   XY=              0.0000   XZ=              0.0000   YZ=              0.0000

 Normal termination of Gaussian 16 at Sat Dec 31 21:27:15 2022.
