 Gaussian 16, Revision A.03,
 Gaussian 16:  ES64L-G16RevA.03 25-Dec-2016

 -------------------------------------
 #p CCSD(T)/cc-pVTZ Guess=Read SCF=XQC
 -------------------------------------

 ---------
 O2_O2_206
 ---------
 Symbolic Z-matrix:
 Charge = -2 Multiplicity = 3

                         Standard orientation:
 ---------------------------------------------------------------------
 Center     Atomic      Atomic             Coordinates (Angstroms)
 Number     Number       Type             X           Y           Z
 ---------------------------------------------------------------------
      1          8           0        0.000000    0.000000    2.250910
      2          8           0        0.000000    0.000000    3.603290
      3          8           0        0.000000    0.000000   -3.603290
      4          8           0        0.000000    0.000000   -2.250910
 ---------------------------------------------------------------------

 SCF Done:  E(UHF) =  -298.958004884     A.U. after   10 cycles
 E2 =    -0.1219390218D+01 EUMP2 =    -0.30017739510187D+03
 CCSD(T)
 CCSD(T)= -0.30012581039D+03

 The electronic state is 3-SGG.
 Alpha  occ. eigenvalues --  -20.22354 -20.22354 -20.20118 -20.20118  -1.07093
 Alpha  occ. eigenvalues --   -1.07092  -0.70682  -0.70672  -0.25632  -0.25632
 Alpha  occ. eigenvalues --   -0.25628  -0.25628  -0.20016  -0.19946  -0.04688
 Alpha  occ. eigenvalues --   -0.04688  -0.04679  -0.04679
 Alpha virt. eigenvalues --    0.71301   0.72885   1.10965   1.13088   1.13088
 Alpha virt. eigenvalues --    1.13174   1.13174   1.13301   1.16330   1.19353
 Alpha virt. eigenvalues --    1.21648   1.21648   1.21891   1.21891   1.35212

  Beta  occ. eigenvalues --  -20.18889 -20.18888 -20.17504 -20.17504  -0.98998
  Beta  occ. eigenvalues --   -0.98984  -0.59397  -0.59284  -0.17500  -0.17403
  Beta  occ. eigenvalues --   -0.11204  -0.11204  -0.10919  -0.10919   0.23846
  Beta  occ. eigenvalues --    0.23846
  Beta virt. eigenvalues --    0.33462   0.33462   0.74352   0.76208   1.12999
  Beta virt. eigenvalues --    1.14810   1.17094   1.17998   1.17998   1.18065
  Beta virt. eigenvalues --    1.18065   1.20493   1.26979   1.26979   1.27236

 Mulliken charges and spin densities:
               1          2
     1  O   -0.430509   0.591005
     2  O   -0.569491   0.408995
     3  O   -0.569491   0.408995
     4  O   -0.430509   0.591005
 Sum of Mulliken charges =  -2.00000   2.00000

 Dipole moment (field-independent basis, Debye):
    X=             -0.0000    Y=             -0.0000    Z=              0.0000  Tot=              0.0000
 Quadrupole moment (field-independent basis, Debye-Ang):
   XX=            -24.9499   YY=            -24.9499   ZZ=           -118.6213
   XY=              0.0000   XZ=              0.0000   YZ=              0.0000

 Normal termination of Gaussian 16 at Sat Dec 31 23:56:13 2022.
