 Gaussian 16, Revision A.03,
 Gaussian 16:  ES64L-G16RevA.03 25-Dec-2016

 -------------------------------------
 #p CCSD(T)/cc-pVTZ Guess=Read SCF=XQC
 -------------------------------------

 --------
 O2_O2_12
 --------
 Symbolic Z-matrix:
 Charge = -2 Multiplicity = 3

                         Standard orientation:
 ---------------------------------------------------------------------
 Center     Atomic      Atomic             Coordinates (Angstroms)
 Number     Number       Type             X           Y           Z
 ---------------------------------------------------------------------
      1          8           0        0.000000    0.000000    0.877527
      2          8           0        0.000000    0.000000    2.229907
      3          8           0        0.000000    0.000000   -2.229907
      4          8           0        0.000000    0.000000   -0.877527
 ---------------------------------------------------------------------

 SCF Done:  E(UHF) =  -298.946295385     A.U. after   12 cycles
 E2 =    -0.1024662418D+01 EUMP2 =    -0.29997095780324D+03
 CCSD(T)
 CCSD(T)= -0.30000930980D+03

 The electronic state is 3-SGG.
 Alpha  occ. eigenvalues --  -20.19496 -20.19494 -20.08390 -20.08390  -1.03754
 Alpha  occ. eigenvalues --   -1.00090  -0.68453  -0.59280  -0.22950  -0.22950
 Alpha  occ. eigenvalues --   -0.20128  -0.18478  -0.18478  -0.03451   0.01916
 Alpha  occ. eigenvalues --    0.01916   0.04850   0.04850
 Alpha virt. eigenvalues --    0.78474   0.87845   1.16220   1.16220   1.17219
 Alpha virt. eigenvalues --    1.18284   1.22210   1.22210   1.26792   1.26792
 Alpha virt. eigenvalues --    1.38469   1.38779   1.41677   1.41677   1.50549

  Beta  occ. eigenvalues --  -20.14474 -20.14462 -20.07068 -20.07068  -0.93840
  Beta  occ. eigenvalues --   -0.90991  -0.60334  -0.46844  -0.17340  -0.06903
  Beta  occ. eigenvalues --   -0.06903  -0.02784  -0.02784   0.00429   0.21006
  Beta  occ. eigenvalues --    0.21006
  Beta virt. eigenvalues --    0.52366   0.52366   0.82502   0.91633   1.18397
  Beta virt. eigenvalues --    1.19131   1.23329   1.23329   1.25575   1.25575
  Beta virt. eigenvalues --    1.31274   1.31274   1.38908   1.39512   1.47895

 Mulliken charges and spin densities:
               1          2
     1  O   -0.212429   0.843585
     2  O   -0.787571   0.156415
     3  O   -0.787571   0.156415
     4  O   -0.212429   0.843585
 Sum of Mulliken charges =  -2.00000   2.00000

 Dipole moment (field-independent basis, Debye):
    X=             -0.0000    Y=              0.0000    Z=              0.0000  Tot=              0.0000
 Quadrupole moment (field-independent basis, Debye-Ang):
   XX=            -25.0809   YY=            -25.0809   ZZ=            -65.5033
   XY=              0.0000   XZ=              0.0000   YZ=              0.0000

 Normal termination of Gaussian 16 at Sat Dec 31 19:59:54 2022.
