 Gaussian 16, Revision A.03,
 Gaussian 16:  ES64L-G16RevA.03 25-Dec-2016

 -------------------------------------
 #p CCSD(T)/cc-pVTZ Guess=Read SCF=XQC
 -------------------------------------

 --------
 O2_O2_63
 --------
 Symbolic Z-matrix:
 Charge = -2 Multiplicity = 3

                         Standard orientation:
 ---------------------------------------------------------------------
 Center     Atomic      Atomic             Coordinates (Angstroms)
 Number     Number       Type             X           Y           Z
 ---------------------------------------------------------------------
      1          8           0        0.000000    0.000000    1.238571
      2          8           0        0.000000    0.000000    2.590951
      3          8           0        0.000000    0.000000   -2.590951
      4          8           0        0.000000    0.000000   -1.238571
 ---------------------------------------------------------------------

 SCF Done:  E(UHF) =  -298.962344593     A.U. after   12 cycles
 E2 =    -0.1077117244D+01 EUMP2 =    -0.30003946183753D+03
 CCSD(T)
 CCSD(T)= -0.30006836057D+03

 The electronic state is 3-SGG.
 Alpha  occ. eigenvalues --  -20.20523 -20.20523 -20.13590 -20.13589  -1.03599
 Alpha  occ. eigenvalues --   -1.03190  -0.66983  -0.65370  -0.22442  -0.22442
 Alpha  occ. eigenvalues --   -0.21707  -0.21707  -0.17513  -0.13396  -0.00476
 Alpha  occ. eigenvalues --   -0.00476   0.00352   0.00352
 Alpha virt. eigenvalues --    0.75356   0.81850   1.13504   1.13504   1.15857
 Alpha virt. eigenvalues --    1.17783   1.18922   1.18922   1.22820   1.22820
 Alpha virt. eigenvalues --    1.23863   1.34433   1.34433   1.38386   1.39267

  Beta  occ. eigenvalues --  -20.16133 -20.16129 -20.11703 -20.11703  -0.94896
  Beta  occ. eigenvalues --   -0.94437  -0.56276  -0.53437  -0.15184  -0.10355
  Beta  occ. eigenvalues --   -0.07701  -0.07701  -0.06187  -0.06187   0.24051
  Beta  occ. eigenvalues --    0.24051
  Beta virt. eigenvalues --    0.43237   0.43237   0.78797   0.85750   1.17003
  Beta virt. eigenvalues --    1.18218   1.20082   1.20082   1.22964   1.22964
  Beta virt. eigenvalues --    1.26025   1.27108   1.27108   1.38755   1.39793

 Mulliken charges and spin densities:
               1          2
     1  O   -0.325401   0.739221
     2  O   -0.674599   0.260779
     3  O   -0.674599   0.260779
     4  O   -0.325401   0.739221
 Sum of Mulliken charges =  -2.00000   2.00000

 Dipole moment (field-independent basis, Debye):
    X=             -0.0000    Y=              0.0000    Z=             -0.0000  Tot=              0.0000
 Quadrupole moment (field-independent basis, Debye-Ang):
   XX=            -25.0804   YY=            -25.0804   ZZ=            -74.6041
   XY=              0.0000   XZ=              0.0000   YZ=              0.0000

 Normal termination of Gaussian 16 at Sat Dec 31 20:59:57 2022.
