 Gaussian 16, Revision A.03,
 Gaussian 16:  ES64L-G16RevA.03 25-Dec-2016

 -------------------------------------
 #p CCSD(T)/cc-pVTZ Guess=Read SCF=XQC
 -------------------------------------

 ---------
 O2_O2_190
 ---------
 Symbolic Z-matrix:
 Charge = -2 Multiplicity = 3

                         Standard orientation:
 ---------------------------------------------------------------------
 Center     Atomic      Atomic             Coordinates (Angstroms)
 Number     Number       Type             X           Y           Z
 ---------------------------------------------------------------------
      1          8           0        0.000000    0.000000    2.137641
      2          8           0        0.000000    0.000000    3.490021
      3          8           0        0.000000    0.000000   -3.490021
      4          8           0        0.000000    0.000000   -2.137641
 ---------------------------------------------------------------------

 SCF Done:  E(UHF) =  -298.956688532     A.U. after   11 cycles
 E2 =    -0.1206284582D+01 EUMP2 =    -0.30016297311374D+03
 CCSD(T)
 CCSD(T)= -0.30012113633D+03

 The electronic state is 3-SGG.
 Alpha  occ. eigenvalues --  -20.22094 -20.22094 -20.19652 -20.19652  -1.06744
 Alpha  occ. eigenvalues --   -1.06742  -0.70313  -0.70294  -0.25289  -0.25289
 Alpha  occ. eigenvalues --   -0.25280  -0.25280  -0.19665  -0.19547  -0.04320
 Alpha  occ. eigenvalues --   -0.04320  -0.04301  -0.04301
 Alpha virt. eigenvalues --    0.71224   0.73677   1.10313   1.13398   1.13398
 Alpha virt. eigenvalues --    1.13565   1.13565   1.13911   1.16245   1.21444
 Alpha virt. eigenvalues --    1.21905   1.21905   1.22373   1.22373   1.35552

  Beta  occ. eigenvalues --  -20.18591 -20.18590 -20.17076 -20.17076  -0.98640
  Beta  occ. eigenvalues --   -0.98622  -0.59040  -0.58897  -0.17152  -0.16993
  Beta  occ. eigenvalues --   -0.10874  -0.10874  -0.10548  -0.10548   0.23988
  Beta  occ. eigenvalues --    0.23988
  Beta virt. eigenvalues --    0.34077   0.34077   0.74197   0.77070   1.12435
  Beta virt. eigenvalues --    1.15285   1.16976   1.18314   1.18314   1.18439
  Beta virt. eigenvalues --    1.18439   1.22670   1.27236   1.27236   1.27731

 Mulliken charges and spin densities:
               1          2
     1  O   -0.424752   0.598862
     2  O   -0.575248   0.401138
     3  O   -0.575248   0.401138
     4  O   -0.424752   0.598862
 Sum of Mulliken charges =  -2.00000   2.00000

 Dipole moment (field-independent basis, Debye):
    X=             -0.0000    Y=              0.0000    Z=              0.0000  Tot=              0.0000
 Quadrupole moment (field-independent basis, Debye-Ang):
   XX=            -24.9533   YY=            -24.9533   ZZ=           -112.6058
   XY=              0.0000   XZ=              0.0000   YZ=              0.0000

 Normal termination of Gaussian 16 at Sat Dec 31 23:36:00 2022.
