 Gaussian 16, Revision A.03,
 Gaussian 16:  ES64L-G16RevA.03 25-Dec-2016

 -------------------------------------
 #p CCSD(T)/cc-pVTZ Guess=Read SCF=XQC
 -------------------------------------

 ---------
 O2_O2_140
 ---------
 Symbolic Z-matrix:
 Charge = -2 Multiplicity = 3

                         Standard orientation:
 ---------------------------------------------------------------------
 Center     Atomic      Atomic             Coordinates (Angstroms)
 Number     Number       Type             X           Y           Z
 ---------------------------------------------------------------------
      1          8           0        0.000000    0.000000    1.783676
      2          8           0        0.000000    0.000000    3.136056
      3          8           0        0.000000    0.000000   -3.136056
      4          8           0        0.000000    0.000000   -1.783676
 ---------------------------------------------------------------------

 SCF Done:  E(UHF) =  -298.953775680     A.U. after   11 cycles
 E2 =    -0.1162135336D+01 EUMP2 =    -0.30011591101587D+03
 CCSD(T)
 CCSD(T)= -0.30010405270D+03

 The electronic state is 3-SGG.
 Alpha  occ. eigenvalues --  -20.21307 -20.21307 -20.17886 -20.17886  -1.05540
 Alpha  occ. eigenvalues --   -1.05522  -0.69019  -0.68903  -0.24121  -0.24121
 Alpha  occ. eigenvalues --   -0.24067  -0.24067  -0.18515  -0.17995  -0.03020
 Alpha  occ. eigenvalues --   -0.03020  -0.02918  -0.02918
 Alpha virt. eigenvalues --    0.70819   0.76722   1.07174   1.14184   1.14184
 Alpha virt. eigenvalues --    1.15172   1.15172   1.15238   1.16524   1.22264
 Alpha virt. eigenvalues --    1.22264   1.24865   1.24865   1.35371   1.36841

  Beta  occ. eigenvalues --  -20.17615 -20.17614 -20.15474 -20.15474  -0.97362
  Beta  occ. eigenvalues --   -0.97310  -0.57802  -0.57431  -0.16026  -0.15365
  Beta  occ. eigenvalues --   -0.09724  -0.09724  -0.09188  -0.09188   0.24387
  Beta  occ. eigenvalues --    0.24387
  Beta virt. eigenvalues --    0.36491   0.36491   0.73515   0.80389   1.09479
  Beta virt. eigenvalues --    1.16368   1.17295   1.19244   1.19244   1.19910
  Beta virt. eigenvalues --    1.19910   1.27518   1.27518   1.30349   1.30349

 Mulliken charges and spin densities:
               1          2
     1  O   -0.400575   0.633199
     2  O   -0.599425   0.366801
     3  O   -0.599425   0.366801
     4  O   -0.400575   0.633199
 Sum of Mulliken charges =  -2.00000   2.00000

 Dipole moment (field-independent basis, Debye):
    X=             -0.0000    Y=             -0.0000    Z=             -0.0000  Tot=              0.0000
 Quadrupole moment (field-independent basis, Debye-Ang):
   XX=            -24.9757   YY=            -24.9757   ZZ=            -95.5322
   XY=              0.0000   XZ=              0.0000   YZ=              0.0000

 Normal termination of Gaussian 16 at Sat Dec 31 22:34:19 2022.
