 Gaussian 16, Revision A.03,
 Gaussian 16:  ES64L-G16RevA.03 25-Dec-2016

 -------------------------------------
 #p CCSD(T)/cc-pVTZ Guess=Read SCF=XQC
 -------------------------------------

 --------
 O2_O2_65
 --------
 Symbolic Z-matrix:
 Charge = -2 Multiplicity = 3

                         Standard orientation:
 ---------------------------------------------------------------------
 Center     Atomic      Atomic             Coordinates (Angstroms)
 Number     Number       Type             X           Y           Z
 ---------------------------------------------------------------------
      1          8           0        0.000000    0.000000    1.252730
      2          8           0        0.000000    0.000000    2.605110
      3          8           0        0.000000    0.000000   -2.605110
      4          8           0        0.000000    0.000000   -1.252730
 ---------------------------------------------------------------------

 SCF Done:  E(UHF) =  -298.961841758     A.U. after   12 cycles
 E2 =    -0.1079571155D+01 EUMP2 =    -0.30004141291319D+03
 CCSD(T)
 CCSD(T)= -0.30006950194D+03

 The electronic state is 3-SGG.
 Alpha  occ. eigenvalues --  -20.20541 -20.20540 -20.13740 -20.13739  -1.03643
 Alpha  occ. eigenvalues --   -1.03267  -0.67019  -0.65511  -0.22472  -0.22472
 Alpha  occ. eigenvalues --   -0.21786  -0.21786  -0.17496  -0.13596  -0.00555
 Alpha  occ. eigenvalues --   -0.00555   0.00233   0.00233
 Alpha virt. eigenvalues --    0.75209   0.81694   1.13503   1.13503   1.15830
 Alpha virt. eigenvalues --    1.17688   1.18811   1.18811   1.22744   1.22744
 Alpha virt. eigenvalues --    1.22967   1.34115   1.34115   1.38350   1.39195

  Beta  occ. eigenvalues --  -20.16176 -20.16173 -20.11834 -20.11834  -0.94965
  Beta  occ. eigenvalues --   -0.94535  -0.56274  -0.53598  -0.15163  -0.10573
  Beta  occ. eigenvalues --   -0.07753  -0.07753  -0.06287  -0.06287   0.24098
  Beta  occ. eigenvalues --    0.24098
  Beta virt. eigenvalues --    0.42979   0.42979   0.78620   0.85591   1.16970
  Beta virt. eigenvalues --    1.18137   1.20028   1.20028   1.22878   1.22878
  Beta virt. eigenvalues --    1.25132   1.27059   1.27059   1.38722   1.39727

 Mulliken charges and spin densities:
               1          2
     1  O   -0.328387   0.735366
     2  O   -0.671613   0.264634
     3  O   -0.671613   0.264634
     4  O   -0.328387   0.735366
 Sum of Mulliken charges =  -2.00000   2.00000

 Dipole moment (field-independent basis, Debye):
    X=             -0.0000    Y=              0.0000    Z=             -0.0000  Tot=              0.0000
 Quadrupole moment (field-independent basis, Debye-Ang):
   XX=            -25.0767   YY=            -25.0767   ZZ=            -75.0589
   XY=              0.0000   XZ=              0.0000   YZ=              0.0000

 Normal termination of Gaussian 16 at Sat Dec 31 21:02:22 2022.
