 Gaussian 16, Revision A.03,
 Gaussian 16:  ES64L-G16RevA.03 25-Dec-2016

 -------------------------------------
 #p CCSD(T)/cc-pVTZ Guess=Read SCF=XQC
 -------------------------------------

 ---------
 O2_O2_164
 ---------
 Symbolic Z-matrix:
 Charge = -2 Multiplicity = 3

                         Standard orientation:
 ---------------------------------------------------------------------
 Center     Atomic      Atomic             Coordinates (Angstroms)
 Number     Number       Type             X           Y           Z
 ---------------------------------------------------------------------
      1          8           0        0.000000    0.000000    1.953579
      2          8           0        0.000000    0.000000    3.305959
      3          8           0        0.000000    0.000000   -3.305959
      4          8           0        0.000000    0.000000   -1.953579
 ---------------------------------------------------------------------

 SCF Done:  E(UHF) =  -298.954824760     A.U. after   11 cycles
 E2 =    -0.1184078262D+01 EUMP2 =    -0.30013890302207D+03
 CCSD(T)
 CCSD(T)= -0.30011276105D+03

 The electronic state is 3-SGG.
 Alpha  occ. eigenvalues --  -20.21673 -20.21673 -20.18800 -20.18800  -1.06137
 Alpha  occ. eigenvalues --   -1.06130  -0.69665  -0.69615  -0.24696  -0.24696
 Alpha  occ. eigenvalues --   -0.24673  -0.24673  -0.19071  -0.18807  -0.03672
 Alpha  occ. eigenvalues --   -0.03672  -0.03625  -0.03625
 Alpha virt. eigenvalues --    0.70914   0.75193   1.08523   1.13870   1.13870
 Alpha virt. eigenvalues --    1.14315   1.14315   1.14722   1.16241   1.22202
 Alpha virt. eigenvalues --    1.22202   1.23422   1.23422   1.27144   1.36146

  Beta  occ. eigenvalues --  -20.18087 -20.18086 -20.16299 -20.16299  -0.98006
  Beta  occ. eigenvalues --   -0.97977  -0.58417  -0.58192  -0.16566  -0.16225
  Beta  occ. eigenvalues --   -0.10298  -0.10298  -0.09883  -0.09883   0.24211
  Beta  occ. eigenvalues --    0.24211
  Beta virt. eigenvalues --    0.35221   0.35221   0.73723   0.78728   1.10762
  Beta virt. eigenvalues --    1.15931   1.16982   1.18823   1.18823   1.19140
  Beta virt. eigenvalues --    1.19140   1.27518   1.27518   1.28413   1.28824

 Mulliken charges and spin densities:
               1          2
     1  O   -0.413593   0.614505
     2  O   -0.586407   0.385495
     3  O   -0.586407   0.385495
     4  O   -0.413593   0.614505
 Sum of Mulliken charges =  -2.00000   2.00000

 Dipole moment (field-independent basis, Debye):
    X=             -0.0000    Y=              0.0000    Z=             -0.0000  Tot=              0.0000
 Quadrupole moment (field-independent basis, Debye-Ang):
   XX=            -24.9620   YY=            -24.9620   ZZ=           -103.3964
   XY=              0.0000   XZ=              0.0000   YZ=              0.0000

 Normal termination of Gaussian 16 at Sat Dec 31 23:03:55 2022.
