 Gaussian 16, Revision A.03,
 Gaussian 16:  ES64L-G16RevA.03 25-Dec-2016

 -------------------------------------
 #p CCSD(T)/cc-pVTZ Guess=Read SCF=XQC
 -------------------------------------

 ---------
 O2_O2_236
 ---------
 Symbolic Z-matrix:
 Charge = -2 Multiplicity = 3

                         Standard orientation:
 ---------------------------------------------------------------------
 Center     Atomic      Atomic             Coordinates (Angstroms)
 Number     Number       Type             X           Y           Z
 ---------------------------------------------------------------------
      1          8           0        0.000000    0.000000    2.463288
      2          8           0        0.000000    0.000000    3.815668
      3          8           0        0.000000    0.000000   -3.815668
      4          8           0        0.000000    0.000000   -2.463288
 ---------------------------------------------------------------------

 SCF Done:  E(UHF) =  -298.960533852     A.U. after   11 cycles
 E2 =    -0.1243219691D+01 EUMP2 =    -0.30020375354256D+03
 CCSD(T)
 CCSD(T)= -0.30013370960D+03

 The electronic state is 3-SGG.
 Alpha  occ. eigenvalues --  -20.22820 -20.22820 -20.20894 -20.20894  -1.07693
 Alpha  occ. eigenvalues --   -1.07693  -0.71313  -0.71310  -0.26226  -0.26226
 Alpha  occ. eigenvalues --   -0.26225  -0.26225  -0.20629  -0.20606  -0.05318
 Alpha  occ. eigenvalues --   -0.05318  -0.05315  -0.05315
 Alpha virt. eigenvalues --    0.71153   0.71740   1.11291   1.12166   1.12522
 Alpha virt. eigenvalues --    1.12522   1.12544   1.12544   1.16320   1.17243
 Alpha virt. eigenvalues --    1.21114   1.21114   1.21177   1.21177   1.34622

  Beta  occ. eigenvalues --  -20.19412 -20.19412 -20.18222 -20.18222  -0.99609
  Beta  occ. eigenvalues --   -0.99600  -0.60009  -0.59930  -0.18111  -0.18074
  Beta  occ. eigenvalues --   -0.11773  -0.11773  -0.11547  -0.11547   0.23586
  Beta  occ. eigenvalues --    0.23586
  Beta virt. eigenvalues --    0.32448   0.32448   0.74288   0.74976   1.13200
  Beta virt. eigenvalues --    1.13890   1.17159   1.17433   1.17433   1.17452
  Beta virt. eigenvalues --    1.17452   1.18230   1.26441   1.26441   1.26508

 Mulliken charges and spin densities:
               1          2
     1  O   -0.439621   0.578882
     2  O   -0.560379   0.421118
     3  O   -0.560379   0.421118
     4  O   -0.439621   0.578882
 Sum of Mulliken charges =  -2.00000   2.00000

 Dipole moment (field-independent basis, Debye):
    X=             -0.0000    Y=             -0.0000    Z=             -0.0000  Tot=              0.0000
 Quadrupole moment (field-independent basis, Debye-Ang):
   XX=            -24.9459   YY=            -24.9459   ZZ=           -130.6056
   XY=              0.0000   XZ=              0.0000   YZ=              0.0000

 Normal termination of Gaussian 16 at Sun Jan  1 00:32:40 2023.
