 Gaussian 16, Revision A.03,
 Gaussian 16:  ES64L-G16RevA.03 25-Dec-2016

 -------------------------------------
 #p CCSD(T)/cc-pVTZ Guess=Read SCF=XQC
 -------------------------------------

 ---------
 O2_O2_211
 ---------
 Symbolic Z-matrix:
 Charge = -2 Multiplicity = 3

                         Standard orientation:
 ---------------------------------------------------------------------
 Center     Atomic      Atomic             Coordinates (Angstroms)
 Number     Number       Type             X           Y           Z
 ---------------------------------------------------------------------
      1          8           0        0.000000    0.000000    2.286306
      2          8           0        0.000000    0.000000    3.638686
      3          8           0        0.000000    0.000000   -3.638686
      4          8           0        0.000000    0.000000   -2.286306
 ---------------------------------------------------------------------

 SCF Done:  E(UHF) =  -298.958426493     A.U. after   11 cycles
 E2 =    -0.1223420138D+01 EUMP2 =    -0.30018184663062D+03
 CCSD(T)
 CCSD(T)= -0.30012720187D+03

 The electronic state is 3-SGG.
 Alpha  occ. eigenvalues --  -20.22434 -20.22434 -20.20256 -20.20256  -1.07198
 Alpha  occ. eigenvalues --   -1.07197  -0.70793  -0.70784  -0.25736  -0.25736
 Alpha  occ. eigenvalues --   -0.25732  -0.25732  -0.20122  -0.20064  -0.04799
 Alpha  occ. eigenvalues --   -0.04799  -0.04791  -0.04791
 Alpha virt. eigenvalues --    0.71301   0.72664   1.11088   1.12992   1.12992
 Alpha virt. eigenvalues --    1.13061   1.13061   1.13103   1.16351   1.18868
 Alpha virt. eigenvalues --    1.21561   1.21561   1.21758   1.21758   1.35109

  Beta  occ. eigenvalues --  -20.18979 -20.18979 -20.17631 -20.17631  -0.99105
  Beta  occ. eigenvalues --   -0.99092  -0.59504  -0.59398  -0.17606  -0.17523
  Beta  occ. eigenvalues --   -0.11304  -0.11304  -0.11030  -0.11030   0.23802
  Beta  occ. eigenvalues --    0.23802
  Beta virt. eigenvalues --    0.33281   0.33281   0.74371   0.75968   1.13095
  Beta virt. eigenvalues --    1.14654   1.17129   1.17901   1.17901   1.17956
  Beta virt. eigenvalues --    1.17956   1.19978   1.26892   1.26892   1.27099

 Mulliken charges and spin densities:
               1          2
     1  O   -0.432168   0.588771
     2  O   -0.567832   0.411229
     3  O   -0.567832   0.411229
     4  O   -0.432168   0.588771
 Sum of Mulliken charges =  -2.00000   2.00000

 Dipole moment (field-independent basis, Debye):
    X=             -0.0000    Y=             -0.0000    Z=              0.0000  Tot=              0.0000
 Quadrupole moment (field-independent basis, Debye-Ang):
   XX=            -24.9491   YY=            -24.9491   ZZ=           -120.5549
   XY=              0.0000   XZ=              0.0000   YZ=              0.0000

 Normal termination of Gaussian 16 at Sun Jan  1 00:02:16 2023.
