 Gaussian 16, Revision A.03,
 Gaussian 16:  ES64L-G16RevA.03 25-Dec-2016

 -------------------------------------
 #p CCSD(T)/cc-pVTZ Guess=Read SCF=XQC
 -------------------------------------

 ---------
 O2_O2_203
 ---------
 Symbolic Z-matrix:
 Charge = -2 Multiplicity = 3

                         Standard orientation:
 ---------------------------------------------------------------------
 Center     Atomic      Atomic             Coordinates (Angstroms)
 Number     Number       Type             X           Y           Z
 ---------------------------------------------------------------------
      1          8           0        0.000000    0.000000    2.229671
      2          8           0        0.000000    0.000000    3.582052
      3          8           0        0.000000    0.000000   -3.582052
      4          8           0        0.000000    0.000000   -2.229671
 ---------------------------------------------------------------------

 SCF Done:  E(UHF) =  -298.957753438     A.U. after   10 cycles
 E2 =    -0.1216958456D+01 EUMP2 =    -0.30017471189376D+03
 CCSD(T)
 CCSD(T)= -0.30012495961D+03

 The electronic state is 3-SGG.
 Alpha  occ. eigenvalues --  -20.22306 -20.22306 -20.20034 -20.20034  -1.07029
 Alpha  occ. eigenvalues --   -1.07028  -0.70614  -0.70603  -0.25569  -0.25569
 Alpha  occ. eigenvalues --   -0.25564  -0.25564  -0.19951  -0.19874  -0.04621
 Alpha  occ. eigenvalues --   -0.04621  -0.04610  -0.04610
 Alpha virt. eigenvalues --    0.71296   0.73024   1.10873   1.13147   1.13147
 Alpha virt. eigenvalues --    1.13244   1.13244   1.13419   1.16315   1.19679
 Alpha virt. eigenvalues --    1.21698   1.21698   1.21974   1.21974   1.35274

  Beta  occ. eigenvalues --  -20.18834 -20.18833 -20.17427 -20.17426  -0.98933
  Beta  occ. eigenvalues --   -0.98918  -0.59332  -0.59214  -0.17436  -0.17329
  Beta  occ. eigenvalues --   -0.11144  -0.11144  -0.10852  -0.10852   0.23872
  Beta  occ. eigenvalues --    0.23872
  Beta virt. eigenvalues --    0.33573   0.33573   0.74333   0.76359   1.12924
  Beta virt. eigenvalues --    1.14902   1.17071   1.18057   1.18057   1.18132
  Beta virt. eigenvalues --    1.18132   1.20836   1.27030   1.27030   1.27321

 Mulliken charges and spin densities:
               1          2
     1  O   -0.429483   0.592393
     2  O   -0.570517   0.407607
     3  O   -0.570517   0.407607
     4  O   -0.429483   0.592393
 Sum of Mulliken charges =  -2.00000   2.00000

 Dipole moment (field-independent basis, Debye):
    X=             -0.0000    Y=              0.0000    Z=              0.0000  Tot=              0.0000
 Quadrupole moment (field-independent basis, Debye-Ang):
   XX=            -24.9505   YY=            -24.9505   ZZ=           -117.4734
   XY=              0.0000   XZ=              0.0000   YZ=              0.0000

 Normal termination of Gaussian 16 at Sat Dec 31 23:52:26 2022.
