 Gaussian 16, Revision A.03,
 Gaussian 16:  ES64L-G16RevA.03 25-Dec-2016

 -------------------------------------
 #p CCSD(T)/cc-pVTZ Guess=Read SCF=XQC
 -------------------------------------

 ---------
 O2_O2_170
 ---------
 Symbolic Z-matrix:
 Charge = -2 Multiplicity = 3

                         Standard orientation:
 ---------------------------------------------------------------------
 Center     Atomic      Atomic             Coordinates (Angstroms)
 Number     Number       Type             X           Y           Z
 ---------------------------------------------------------------------
      1          8           0        0.000000    0.000000    1.996055
      2          8           0        0.000000    0.000000    3.348435
      3          8           0        0.000000    0.000000   -3.348435
      4          8           0        0.000000    0.000000   -1.996055
 ---------------------------------------------------------------------

 SCF Done:  E(UHF) =  -298.955207293     A.U. after   11 cycles
 E2 =    -0.1189324692D+01 EUMP2 =    -0.30014453198520D+03
 CCSD(T)
 CCSD(T)= -0.30011478558D+03

 The electronic state is 3-SGG.
 Alpha  occ. eigenvalues --  -20.21769 -20.21769 -20.19008 -20.19008  -1.06281
 Alpha  occ. eigenvalues --   -1.06276  -0.69820  -0.69779  -0.24836  -0.24836
 Alpha  occ. eigenvalues --   -0.24818  -0.24818  -0.19210  -0.18989  -0.03827
 Alpha  occ. eigenvalues --   -0.03827  -0.03789  -0.03789
 Alpha virt. eigenvalues --    0.70992   0.74824   1.08977   1.13768   1.13768
 Alpha virt. eigenvalues --    1.14127   1.14127   1.14559   1.16215   1.22152
 Alpha virt. eigenvalues --    1.22152   1.23142   1.23142   1.25538   1.36004

  Beta  occ. eigenvalues --  -20.18205 -20.18204 -20.16488 -20.16488  -0.98159
  Beta  occ. eigenvalues --   -0.98132  -0.58566  -0.58364  -0.16703  -0.16415
  Beta  occ. eigenvalues --   -0.10435  -0.10435  -0.10044  -0.10044   0.24162
  Beta  occ. eigenvalues --    0.24162
  Beta virt. eigenvalues --    0.34939   0.34939   0.73839   0.78325   1.11192
  Beta virt. eigenvalues --    1.15797   1.16949   1.18708   1.18708   1.18967
  Beta virt. eigenvalues --    1.18967   1.26813   1.27474   1.27474   1.28530

 Mulliken charges and spin densities:
               1          2
     1  O   -0.416402   0.610525
     2  O   -0.583598   0.389475
     3  O   -0.583598   0.389475
     4  O   -0.416402   0.610525
 Sum of Mulliken charges =  -2.00000   2.00000

 Dipole moment (field-independent basis, Debye):
    X=             -0.0000    Y=              0.0000    Z=             -0.0000  Tot=              0.0000
 Quadrupole moment (field-independent basis, Debye-Ang):
   XX=            -24.9596   YY=            -24.9596   ZZ=           -105.4588
   XY=              0.0000   XZ=              0.0000   YZ=              0.0000

 Normal termination of Gaussian 16 at Sat Dec 31 23:11:02 2022.
