 Gaussian 16, Revision A.03,
 Gaussian 16:  ES64L-G16RevA.03 25-Dec-2016

 -------------------------------------
 #p CCSD(T)/cc-pVTZ Guess=Read SCF=XQC
 -------------------------------------

 ---------
 O2_O2_218
 ---------
 Symbolic Z-matrix:
 Charge = -2 Multiplicity = 3

                         Standard orientation:
 ---------------------------------------------------------------------
 Center     Atomic      Atomic             Coordinates (Angstroms)
 Number     Number       Type             X           Y           Z
 ---------------------------------------------------------------------
      1          8           0        0.000000    0.000000    2.335861
      2          8           0        0.000000    0.000000    3.688241
      3          8           0        0.000000    0.000000   -3.688241
      4          8           0        0.000000    0.000000   -2.335861
 ---------------------------------------------------------------------

 SCF Done:  E(UHF) =  -298.959019291     A.U. after   11 cycles
 E2 =    -0.1229018170D+01 EUMP2 =    -0.30018803746063D+03
 CCSD(T)
 CCSD(T)= -0.30012909871D+03

 The electronic state is 3-SGG.
 Alpha  occ. eigenvalues --  -20.22545 -20.22545 -20.20443 -20.20443  -1.07341
 Alpha  occ. eigenvalues --   -1.07341  -0.70944  -0.70937  -0.25878  -0.25878
 Alpha  occ. eigenvalues --   -0.25875  -0.25875  -0.20268  -0.20223  -0.04950
 Alpha  occ. eigenvalues --   -0.04950  -0.04944  -0.04944
 Alpha virt. eigenvalues --    0.71283   0.72375   1.11206   1.12827   1.12858
 Alpha virt. eigenvalues --    1.12858   1.12908   1.12908   1.16367   1.18295
 Alpha virt. eigenvalues --    1.21437   1.21437   1.21582   1.21582   1.34969

  Beta  occ. eigenvalues --  -20.19104 -20.19104 -20.17804 -20.17804  -0.99252
  Beta  occ. eigenvalues --   -0.99240  -0.59651  -0.59554  -0.17751  -0.17685
  Beta  occ. eigenvalues --   -0.11440  -0.11440  -0.11180  -0.11180   0.23740
  Beta  occ. eigenvalues --    0.23740
  Beta virt. eigenvalues --    0.33037   0.33037   0.74376   0.75657   1.13180
  Beta virt. eigenvalues --    1.14435   1.17165   1.17767   1.17767   1.17808
  Beta virt. eigenvalues --    1.17808   1.19365   1.26768   1.26768   1.26920

 Mulliken charges and spin densities:
               1          2
     1  O   -0.434390   0.585799
     2  O   -0.565610   0.414201
     3  O   -0.565610   0.414201
     4  O   -0.434390   0.585799
 Sum of Mulliken charges =  -2.00000   2.00000

 Dipole moment (field-independent basis, Debye):
    X=             -0.0000    Y=              0.0000    Z=              0.0000  Tot=              0.0000
 Quadrupole moment (field-independent basis, Debye-Ang):
   XX=            -24.9480   YY=            -24.9480   ZZ=           -123.3050
   XY=              0.0000   XZ=              0.0000   YZ=              0.0000

 Normal termination of Gaussian 16 at Sun Jan  1 00:10:43 2023.
