 Gaussian 16, Revision A.03,
 Gaussian 16:  ES64L-G16RevA.03 25-Dec-2016

 -------------------------------------
 #p CCSD(T)/cc-pVTZ Guess=Read SCF=XQC
 -------------------------------------

 ---------
 O2_O2_177
 ---------
 Symbolic Z-matrix:
 Charge = -2 Multiplicity = 3

                         Standard orientation:
 ---------------------------------------------------------------------
 Center     Atomic      Atomic             Coordinates (Angstroms)
 Number     Number       Type             X           Y           Z
 ---------------------------------------------------------------------
      1          8           0        0.000000    0.000000    2.045610
      2          8           0        0.000000    0.000000    3.397990
      3          8           0        0.000000    0.000000   -3.397990
      4          8           0        0.000000    0.000000   -2.045610
 ---------------------------------------------------------------------

 SCF Done:  E(UHF) =  -298.955695036     A.U. after   11 cycles
 E2 =    -0.1195346469D+01 EUMP2 =    -0.30015104150484D+03
 CCSD(T)
 CCSD(T)= -0.30011707646D+03

 The electronic state is 3-SGG.
 Alpha  occ. eigenvalues --  -20.21882 -20.21882 -20.19242 -20.19242  -1.06446
 Alpha  occ. eigenvalues --   -1.06443  -0.69996  -0.69965  -0.24997  -0.24997
 Alpha  occ. eigenvalues --   -0.24983  -0.24983  -0.19371  -0.19192  -0.04004
 Alpha  occ. eigenvalues --   -0.04004  -0.03974  -0.03974
 Alpha virt. eigenvalues --    0.71083   0.74406   1.09493   1.13643   1.13643
 Alpha virt. eigenvalues --    1.13920   1.13920   1.14350   1.16207   1.22078
 Alpha virt. eigenvalues --    1.22078   1.22847   1.22847   1.23892   1.35843

  Beta  occ. eigenvalues --  -20.18341 -20.18340 -20.16701 -20.16701  -0.98331
  Beta  occ. eigenvalues --   -0.98308  -0.58735  -0.58558  -0.16861  -0.16626
  Beta  occ. eigenvalues --   -0.10592  -0.10592  -0.10226  -0.10226   0.24102
  Beta  occ. eigenvalues --    0.24102
  Beta virt. eigenvalues --    0.34624   0.34624   0.73977   0.77867   1.11678
  Beta virt. eigenvalues --    1.15630   1.16935   1.18571   1.18571   1.18774
  Beta virt. eigenvalues --    1.18774   1.25161   1.27405   1.27405   1.28223

 Mulliken charges and spin densities:
               1          2
     1  O   -0.419491   0.606178
     2  O   -0.580509   0.393822
     3  O   -0.580509   0.393822
     4  O   -0.419491   0.606178
 Sum of Mulliken charges =  -2.00000   2.00000

 Dipole moment (field-independent basis, Debye):
    X=             -0.0000    Y=             -0.0000    Z=             -0.0000  Tot=              0.0000
 Quadrupole moment (field-independent basis, Debye-Ang):
   XX=            -24.9571   YY=            -24.9571   ZZ=           -107.9128
   XY=              0.0000   XZ=              0.0000   YZ=              0.0000

 Normal termination of Gaussian 16 at Sat Dec 31 23:19:30 2022.
