 Gaussian 16, Revision A.03,
 Gaussian 16:  ES64L-G16RevA.03 25-Dec-2016

 -------------------------------------
 #p CCSD(T)/cc-pVTZ Guess=Read SCF=XQC
 -------------------------------------

 ---------
 O2_O2_201
 ---------
 Symbolic Z-matrix:
 Charge = -2 Multiplicity = 3

                         Standard orientation:
 ---------------------------------------------------------------------
 Center     Atomic      Atomic             Coordinates (Angstroms)
 Number     Number       Type             X           Y           Z
 ---------------------------------------------------------------------
      1          8           0        0.000000    0.000000    2.215513
      2          8           0        0.000000    0.000000    3.567893
      3          8           0        0.000000    0.000000   -3.567893
      4          8           0        0.000000    0.000000   -2.215513
 ---------------------------------------------------------------------

 SCF Done:  E(UHF) =  -298.957586688     A.U. after   10 cycles
 E2 =    -0.1215331202D+01 EUMP2 =    -0.30017291789030D+03
 CCSD(T)
 CCSD(T)= -0.30012438617D+03

 The electronic state is 3-SGG.
 Alpha  occ. eigenvalues --  -20.22273 -20.22273 -20.19977 -20.19977  -1.06986
 Alpha  occ. eigenvalues --   -1.06985  -0.70569  -0.70556  -0.25527  -0.25527
 Alpha  occ. eigenvalues --   -0.25521  -0.25521  -0.19908  -0.19825  -0.04576
 Alpha  occ. eigenvalues --   -0.04576  -0.04564  -0.04564
 Alpha virt. eigenvalues --    0.71290   0.73119   1.10805   1.13185   1.13185
 Alpha virt. eigenvalues --    1.13292   1.13292   1.13497   1.16304   1.19912
 Alpha virt. eigenvalues --    1.21732   1.21732   1.22032   1.22032   1.35316

  Beta  occ. eigenvalues --  -20.18797 -20.18796 -20.17374 -20.17374  -0.98889
  Beta  occ. eigenvalues --   -0.98874  -0.59288  -0.59166  -0.17393  -0.17279
  Beta  occ. eigenvalues --   -0.11103  -0.11103  -0.10806  -0.10806   0.23890
  Beta  occ. eigenvalues --    0.23890
  Beta virt. eigenvalues --    0.33648   0.33648   0.74318   0.76462   1.12866
  Beta virt. eigenvalues --    1.14963   1.17056   1.18096   1.18096   1.18178
  Beta virt. eigenvalues --    1.18178   1.21081   1.27064   1.27064   1.27380

 Mulliken charges and spin densities:
               1          2
     1  O   -0.428786   0.593339
     2  O   -0.571214   0.406661
     3  O   -0.571214   0.406661
     4  O   -0.428786   0.593339
 Sum of Mulliken charges =  -2.00000   2.00000

 Dipole moment (field-independent basis, Debye):
    X=             -0.0000    Y=             -0.0000    Z=             -0.0000  Tot=              0.0000
 Quadrupole moment (field-independent basis, Debye-Ang):
   XX=            -24.9509   YY=            -24.9509   ZZ=           -116.7132
   XY=              0.0000   XZ=              0.0000   YZ=              0.0000

 Normal termination of Gaussian 16 at Sat Dec 31 23:49:54 2022.
