 Gaussian 16, Revision A.03,
 Gaussian 16:  ES64L-G16RevA.03 25-Dec-2016

 -------------------------------------
 #p CCSD(T)/cc-pVTZ Guess=Read SCF=XQC
 -------------------------------------

 --------
 O2_O2_11
 --------
 Symbolic Z-matrix:
 Charge = -2 Multiplicity = 3

                         Standard orientation:
 ---------------------------------------------------------------------
 Center     Atomic      Atomic             Coordinates (Angstroms)
 Number     Number       Type             X           Y           Z
 ---------------------------------------------------------------------
      1          8           0        0.000000    0.000000    0.870447
      2          8           0        0.000000    0.000000    2.222828
      3          8           0        0.000000    0.000000   -2.222828
      4          8           0        0.000000    0.000000   -0.870447
 ---------------------------------------------------------------------

 SCF Done:  E(UHF) =  -298.944127437     A.U. after   11 cycles
 E2 =    -0.1024194747D+01 EUMP2 =    -0.29996832218415D+03
 CCSD(T)
 CCSD(T)= -0.30000655464D+03

 The electronic state is 3-SGG.
 Alpha  occ. eigenvalues --  -20.19467 -20.19465 -20.08247 -20.08247  -1.03830
 Alpha  occ. eigenvalues --   -0.99993  -0.68577  -0.59089  -0.23022  -0.23022
 Alpha  occ. eigenvalues --   -0.20233  -0.18378  -0.18378  -0.03089   0.01972
 Alpha  occ. eigenvalues --    0.01972   0.04979   0.04979
 Alpha virt. eigenvalues --    0.78513   0.88040   1.16297   1.16297   1.17268
 Alpha virt. eigenvalues --    1.18268   1.22290   1.22290   1.26920   1.26920
 Alpha virt. eigenvalues --    1.38429   1.38770   1.41789   1.41789   1.50900

  Beta  occ. eigenvalues --  -20.14436 -20.14423 -20.06936 -20.06936  -0.93871
  Beta  occ. eigenvalues --   -0.90898  -0.60561  -0.46649  -0.17411  -0.06919
  Beta  occ. eigenvalues --   -0.06919  -0.02690  -0.02690   0.00820   0.20894
  Beta  occ. eigenvalues --    0.20894
  Beta virt. eigenvalues --    0.52602   0.52602   0.82543   0.91817   1.18369
  Beta virt. eigenvalues --    1.19223   1.23389   1.23389   1.25642   1.25642
  Beta virt. eigenvalues --    1.31414   1.31414   1.38888   1.39470   1.48009

 Mulliken charges and spin densities:
               1          2
     1  O   -0.209093   0.845266
     2  O   -0.790907   0.154734
     3  O   -0.790907   0.154734
     4  O   -0.209093   0.845266
 Sum of Mulliken charges =  -2.00000   2.00000

 Dipole moment (field-independent basis, Debye):
    X=             -0.0000    Y=              0.0000    Z=             -0.0000  Tot=              0.0000
 Quadrupole moment (field-independent basis, Debye-Ang):
   XX=            -25.0763   YY=            -25.0763   ZZ=            -65.3948
   XY=              0.0000   XZ=              0.0000   YZ=              0.0000

 Normal termination of Gaussian 16 at Sat Dec 31 19:58:45 2022.
