 Gaussian 16, Revision A.03,
 Gaussian 16:  ES64L-G16RevA.03 25-Dec-2016

 -------------------------------------
 #p CCSD(T)/cc-pVTZ Guess=Read SCF=XQC
 -------------------------------------

 ---------
 O2_O2_110
 ---------
 Symbolic Z-matrix:
 Charge = -2 Multiplicity = 3

                         Standard orientation:
 ---------------------------------------------------------------------
 Center     Atomic      Atomic             Coordinates (Angstroms)
 Number     Number       Type             X           Y           Z
 ---------------------------------------------------------------------
      1          8           0        0.000000    0.000000    1.571298
      2          8           0        0.000000    0.000000    2.923678
      3          8           0        0.000000    0.000000   -2.923678
      4          8           0        0.000000    0.000000   -1.571298
 ---------------------------------------------------------------------

 SCF Done:  E(UHF) =  -298.954312522     A.U. after   11 cycles
 E2 =    -0.1131865783D+01 EUMP2 =    -0.30008617830549D+03
 CCSD(T)
 CCSD(T)= -0.30009166671D+03

 The electronic state is 3-SGG.
 Alpha  occ. eigenvalues --  -20.20928 -20.20928 -20.16511 -20.16511  -1.04762
 Alpha  occ. eigenvalues --   -1.04702  -0.68168  -0.67842  -0.23397  -0.23397
 Alpha  occ. eigenvalues --   -0.23247  -0.23247  -0.17882  -0.16710  -0.02126
 Alpha  occ. eigenvalues --   -0.02126  -0.01881  -0.01881
 Alpha virt. eigenvalues --    0.71861   0.78636   1.08637   1.14178   1.14178
 Alpha virt. eigenvalues --    1.15577   1.16485   1.16485   1.17230   1.22131
 Alpha virt. eigenvalues --    1.22131   1.27671   1.27671   1.37374   1.37721

  Beta  occ. eigenvalues --  -20.17039 -20.17037 -20.14253 -20.14253  -0.96470
  Beta  occ. eigenvalues --   -0.96357  -0.57024  -0.56258  -0.15432  -0.13978
  Beta  occ. eigenvalues --   -0.08955  -0.08955  -0.08186  -0.08186   0.24500
  Beta  occ. eigenvalues --    0.24500
  Beta virt. eigenvalues --    0.38500   0.38500   0.74655   0.82428   1.10836
  Beta virt. eigenvalues --    1.16673   1.18040   1.19596   1.19596   1.21026
  Beta virt. eigenvalues --    1.21026   1.27146   1.27146   1.33341   1.33341

 Mulliken charges and spin densities:
               1          2
     1  O   -0.378960   0.664665
     2  O   -0.621040   0.335335
     3  O   -0.621040   0.335335
     4  O   -0.378960   0.664665
 Sum of Mulliken charges =  -2.00000   2.00000

 Dipole moment (field-independent basis, Debye):
    X=             -0.0000    Y=              0.0000    Z=             -0.0000  Tot=              0.0000
 Quadrupole moment (field-independent basis, Debye-Ang):
   XX=            -25.0044   YY=            -25.0044   ZZ=            -86.5846
   XY=              0.0000   XZ=              0.0000   YZ=              0.0000

 Normal termination of Gaussian 16 at Sat Dec 31 21:56:25 2022.
