 Gaussian 16, Revision A.03,
 Gaussian 16:  ES64L-G16RevA.03 25-Dec-2016

 -------------------------------------
 #p CCSD(T)/cc-pVTZ Guess=Read SCF=XQC
 -------------------------------------

 ---------
 O2_O2_227
 ---------
 Symbolic Z-matrix:
 Charge = -2 Multiplicity = 3

                         Standard orientation:
 ---------------------------------------------------------------------
 Center     Atomic      Atomic             Coordinates (Angstroms)
 Number     Number       Type             X           Y           Z
 ---------------------------------------------------------------------
      1          8           0        0.000000    0.000000    2.399575
      2          8           0        0.000000    0.000000    3.751955
      3          8           0        0.000000    0.000000   -3.751955
      4          8           0        0.000000    0.000000   -2.399575
 ---------------------------------------------------------------------

 SCF Done:  E(UHF) =  -298.959780222     A.U. after   11 cycles
 E2 =    -0.1236150101D+01 EUMP2 =    -0.30019593032304D+03
 CCSD(T)
 CCSD(T)= -0.30013145108D+03

 The electronic state is 3-SGG.
 Alpha  occ. eigenvalues --  -20.22684 -20.22684 -20.20673 -20.20673  -1.07520
 Alpha  occ. eigenvalues --   -1.07520  -0.71132  -0.71127  -0.26055  -0.26055
 Alpha  occ. eigenvalues --   -0.26053  -0.26053  -0.20451  -0.20419  -0.05137
 Alpha  occ. eigenvalues --   -0.05137  -0.05133  -0.05133
 Alpha virt. eigenvalues --    0.71231   0.72039   1.11282   1.12485   1.12688
 Alpha virt. eigenvalues --    1.12688   1.12721   1.12721   1.16360   1.17706
 Alpha virt. eigenvalues --    1.21276   1.21276   1.21372   1.21372   1.34793

  Beta  occ. eigenvalues --  -20.19261 -20.19260 -20.18017 -20.18017  -0.99434
  Beta  occ. eigenvalues --   -0.99423  -0.59833  -0.59746  -0.17934  -0.17884
  Beta  occ. eigenvalues --   -0.11609  -0.11609  -0.11367  -0.11367   0.23662
  Beta  occ. eigenvalues --    0.23662
  Beta virt. eigenvalues --    0.32736   0.32736   0.74348   0.75296   1.13219
  Beta virt. eigenvalues --    1.14157   1.17181   1.17598   1.17598   1.17626
  Beta virt. eigenvalues --    1.17626   1.18730   1.26605   1.26605   1.26706

 Mulliken charges and spin densities:
               1          2
     1  O   -0.437088   0.582219
     2  O   -0.562912   0.417781
     3  O   -0.562912   0.417781
     4  O   -0.437088   0.582219
 Sum of Mulliken charges =  -2.00000   2.00000

 Dipole moment (field-independent basis, Debye):
    X=             -0.0000    Y=              0.0000    Z=             -0.0000  Tot=              0.0000
 Quadrupole moment (field-independent basis, Debye-Ang):
   XX=            -24.9469   YY=            -24.9469   ZZ=           -126.9141
   XY=              0.0000   XZ=              0.0000   YZ=              0.0000

 Normal termination of Gaussian 16 at Sun Jan  1 00:21:53 2023.
