 Gaussian 16, Revision A.03,
 Gaussian 16:  ES64L-G16RevA.03 25-Dec-2016

 -------------------------------------
 #p CCSD(T)/cc-pVTZ Guess=Read SCF=XQC
 -------------------------------------

 ---------
 O2_O2_157
 ---------
 Symbolic Z-matrix:
 Charge = -2 Multiplicity = 3

                         Standard orientation:
 ---------------------------------------------------------------------
 Center     Atomic      Atomic             Coordinates (Angstroms)
 Number     Number       Type             X           Y           Z
 ---------------------------------------------------------------------
      1          8           0        0.000000    0.000000    1.904024
      2          8           0        0.000000    0.000000    3.256404
      3          8           0        0.000000    0.000000   -3.256404
      4          8           0        0.000000    0.000000   -1.904024
 ---------------------------------------------------------------------

 SCF Done:  E(UHF) =  -298.954429532     A.U. after   11 cycles
 E2 =    -0.1177847138D+01 EUMP2 =    -0.30013227667049D+03
 CCSD(T)
 CCSD(T)= -0.30011032440D+03

 The electronic state is 3-SGG.
 Alpha  occ. eigenvalues --  -20.21562 -20.21562 -20.18548 -20.18548  -1.05966
 Alpha  occ. eigenvalues --   -1.05957  -0.69481  -0.69417  -0.24530  -0.24530
 Alpha  occ. eigenvalues --   -0.24501  -0.24501  -0.18908  -0.18585  -0.03487
 Alpha  occ. eigenvalues --   -0.03487  -0.03428  -0.03428
 Alpha virt. eigenvalues --    0.70838   0.75633   1.08016   1.13979   1.13979
 Alpha virt. eigenvalues --    1.14547   1.14547   1.14895   1.16295   1.22244
 Alpha virt. eigenvalues --    1.22244   1.23785   1.23785   1.29258   1.36317

  Beta  occ. eigenvalues --  -20.17949 -20.17948 -20.16070 -20.16070  -0.97825
  Beta  occ. eigenvalues --   -0.97790  -0.58241  -0.57983  -0.16407  -0.15991
  Beta  occ. eigenvalues --   -0.10135  -0.10135  -0.09689  -0.09689   0.24267
  Beta  occ. eigenvalues --    0.24267
  Beta virt. eigenvalues --    0.35567   0.35567   0.73604   0.79208   1.10282
  Beta virt. eigenvalues --    1.16074   1.17045   1.18954   1.18954   1.19352
  Beta virt. eigenvalues --    1.19352   1.27549   1.27549   1.29205   1.29205

 Mulliken charges and spin densities:
               1          2
     1  O   -0.410108   0.619474
     2  O   -0.589892   0.380526
     3  O   -0.589892   0.380526
     4  O   -0.410108   0.619474
 Sum of Mulliken charges =  -2.00000   2.00000

 Dipole moment (field-independent basis, Debye):
    X=             -0.0000    Y=              0.0000    Z=              0.0000  Tot=              0.0000
 Quadrupole moment (field-independent basis, Debye-Ang):
   XX=            -24.9654   YY=            -24.9654   ZZ=           -101.0386
   XY=              0.0000   XZ=              0.0000   YZ=              0.0000

 Normal termination of Gaussian 16 at Sat Dec 31 22:55:20 2022.
