 Gaussian 16, Revision A.03,
 Gaussian 16:  ES64L-G16RevA.03 25-Dec-2016

 -------------------------------------
 #p CCSD(T)/cc-pVTZ Guess=Read SCF=XQC
 -------------------------------------

 ---------
 O2_O2_275
 ---------
 Symbolic Z-matrix:
 Charge = -2 Multiplicity = 3

                         Standard orientation:
 ---------------------------------------------------------------------
 Center     Atomic      Atomic             Coordinates (Angstroms)
 Number     Number       Type             X           Y           Z
 ---------------------------------------------------------------------
      1          8           0        0.000000    0.000000    2.739381
      2          8           0        0.000000    0.000000    4.091761
      3          8           0        0.000000    0.000000   -4.091761
      4          8           0        0.000000    0.000000   -2.739381
 ---------------------------------------------------------------------

 SCF Done:  E(UHF) =  -298.963627672     A.U. after   11 cycles
 E2 =    -0.1273355514D+01 EUMP2 =    -0.30023698318625D+03
 CCSD(T)
 CCSD(T)= -0.30014254618D+03

 The electronic state is 3-SGG.
 Alpha  occ. eigenvalues --  -20.23368 -20.23368 -20.21746 -20.21746  -1.08373
 Alpha  occ. eigenvalues --   -1.08373  -0.72022  -0.72022  -0.26902  -0.26902
 Alpha  occ. eigenvalues --   -0.26902  -0.26902  -0.21333  -0.21329  -0.06026
 Alpha  occ. eigenvalues --   -0.06026  -0.06026  -0.06026
 Alpha virt. eigenvalues --    0.70640   0.70759   1.10932   1.11108   1.11856
 Alpha virt. eigenvalues --    1.11856   1.11859   1.11859   1.15863   1.16013
 Alpha virt. eigenvalues --    1.20443   1.20443   1.20452   1.20452   1.33954

  Beta  occ. eigenvalues --  -20.20016 -20.20016 -20.19015 -20.19015  -1.00296
  Beta  occ. eigenvalues --   -1.00290  -0.60701  -0.60645  -0.18814  -0.18803
  Beta  occ. eigenvalues --   -0.12422  -0.12422  -0.12248  -0.12248   0.23276
  Beta  occ. eigenvalues --    0.23276
  Beta virt. eigenvalues --    0.31341   0.31341   0.73811   0.73951   1.12796
  Beta virt. eigenvalues --    1.12949   1.16735   1.16775   1.16775   1.16779
  Beta virt. eigenvalues --    1.16779   1.16917   1.25764   1.25764   1.25774

 Mulliken charges and spin densities:
               1          2
     1  O   -0.449005   0.566649
     2  O   -0.550995   0.433351
     3  O   -0.550995   0.433351
     4  O   -0.449005   0.566649
 Sum of Mulliken charges =  -2.00000   2.00000

 Dipole moment (field-independent basis, Debye):
    X=             -0.0000    Y=              0.0000    Z=             -0.0000  Tot=              0.0000
 Quadrupole moment (field-independent basis, Debye-Ang):
   XX=            -24.9429   YY=            -24.9429   ZZ=           -147.5498
   XY=              0.0000   XZ=              0.0000   YZ=              0.0000

 Normal termination of Gaussian 16 at Sun Jan  1 01:20:41 2023.
