 Gaussian 16, Revision A.03,
 Gaussian 16:  ES64L-G16RevA.03 25-Dec-2016

 -------------------------------------
 #p CCSD(T)/cc-pVTZ Guess=Read SCF=XQC
 -------------------------------------

 ---------
 O2_O2_249
 ---------
 Symbolic Z-matrix:
 Charge = -2 Multiplicity = 3

                         Standard orientation:
 ---------------------------------------------------------------------
 Center     Atomic      Atomic             Coordinates (Angstroms)
 Number     Number       Type             X           Y           Z
 ---------------------------------------------------------------------
      1          8           0        0.000000    0.000000    2.555319
      2          8           0        0.000000    0.000000    3.907699
      3          8           0        0.000000    0.000000   -3.907699
      4          8           0        0.000000    0.000000   -2.555319
 ---------------------------------------------------------------------

 SCF Done:  E(UHF) =  -298.961600373     A.U. after   11 cycles
 E2 =    -0.1253342154D+01 EUMP2 =    -0.30021494252624D+03
 CCSD(T)
 CCSD(T)= -0.30013682130D+03

 The electronic state is 3-SGG.
 Alpha  occ. eigenvalues --  -20.23011 -20.23011 -20.21195 -20.21195  -1.07932
 Alpha  occ. eigenvalues --   -1.07932  -0.71562  -0.71561  -0.26463  -0.26463
 Alpha  occ. eigenvalues --   -0.26462  -0.26462  -0.20875  -0.20862  -0.05567
 Alpha  occ. eigenvalues --   -0.05567  -0.05566  -0.05566
 Alpha virt. eigenvalues --    0.71006   0.71363   1.11224   1.11757   1.12290
 Alpha virt. eigenvalues --    1.12290   1.12301   1.12301   1.16208   1.16729
 Alpha virt. eigenvalues --    1.20883   1.20883   1.20916   1.20916   1.34388

  Beta  occ. eigenvalues --  -20.19623 -20.19623 -20.18502 -20.18502  -0.99850
  Beta  occ. eigenvalues --   -0.99843  -0.60252  -0.60182  -0.18357  -0.18332
  Beta  occ. eigenvalues --   -0.12000  -0.12000  -0.11794  -0.11794   0.23478
  Beta  occ. eigenvalues --    0.23478
  Beta virt. eigenvalues --    0.32056   0.32056   0.74159   0.74579   1.13106
  Beta virt. eigenvalues --    1.13537   1.17066   1.17204   1.17204   1.17214
  Beta virt. eigenvalues --    1.17214   1.17676   1.26208   1.26208   1.26244

 Mulliken charges and spin densities:
               1          2
     1  O   -0.443018   0.574436
     2  O   -0.556982   0.425564
     3  O   -0.556982   0.425564
     4  O   -0.443018   0.574436
 Sum of Mulliken charges =  -2.00000   2.00000

 Dipole moment (field-independent basis, Debye):
    X=             -0.0000    Y=              0.0000    Z=             -0.0000  Tot=              0.0000
 Quadrupole moment (field-independent basis, Debye-Ang):
   XX=            -24.9447   YY=            -24.9447   ZZ=           -136.0829
   XY=              0.0000   XZ=              0.0000   YZ=              0.0000

 Normal termination of Gaussian 16 at Sun Jan  1 00:48:44 2023.
