 Gaussian 16, Revision A.03,
 Gaussian 16:  ES64L-G16RevA.03 25-Dec-2016

 -------------------------------------
 #p CCSD(T)/cc-pVTZ Guess=Read SCF=XQC
 -------------------------------------

 ---------
 O2_O2_253
 ---------
 Symbolic Z-matrix:
 Charge = -2 Multiplicity = 3

                         Standard orientation:
 ---------------------------------------------------------------------
 Center     Atomic      Atomic             Coordinates (Angstroms)
 Number     Number       Type             X           Y           Z
 ---------------------------------------------------------------------
      1          8           0        0.000000    0.000000    2.583636
      2          8           0        0.000000    0.000000    3.936016
      3          8           0        0.000000    0.000000   -3.936016
      4          8           0        0.000000    0.000000   -2.583636
 ---------------------------------------------------------------------

 SCF Done:  E(UHF) =  -298.961922026     A.U. after   11 cycles
 E2 =    -0.1256438981D+01 EUMP2 =    -0.30021836100710D+03
 CCSD(T)
 CCSD(T)= -0.30013774365D+03

 The electronic state is 3-SGG.
 Alpha  occ. eigenvalues --  -20.23068 -20.23068 -20.21284 -20.21284  -1.08003
 Alpha  occ. eigenvalues --   -1.08003  -0.71636  -0.71635  -0.26533  -0.26533
 Alpha  occ. eigenvalues --   -0.26533  -0.26533  -0.20949  -0.20938  -0.05641
 Alpha  occ. eigenvalues --   -0.05641  -0.05640  -0.05640
 Alpha virt. eigenvalues --    0.70954   0.71258   1.11189   1.11644   1.12220
 Alpha virt. eigenvalues --    1.12220   1.12230   1.12230   1.16163   1.16597
 Alpha virt. eigenvalues --    1.20813   1.20813   1.20840   1.20840   1.34318

  Beta  occ. eigenvalues --  -20.19686 -20.19686 -20.18585 -20.18585  -0.99922
  Beta  occ. eigenvalues --   -0.99915  -0.60324  -0.60257  -0.18430  -0.18409
  Beta  occ. eigenvalues --   -0.12068  -0.12068  -0.11867  -0.11867   0.23446
  Beta  occ. eigenvalues --    0.23446
  Beta virt. eigenvalues --    0.31940   0.31940   0.74112   0.74469   1.13066
  Beta virt. eigenvalues --    1.13436   1.17025   1.17135   1.17135   1.17144
  Beta virt. eigenvalues --    1.17144   1.17535   1.26138   1.26138   1.26167

 Mulliken charges and spin densities:
               1          2
     1  O   -0.444006   0.573148
     2  O   -0.555994   0.426852
     3  O   -0.555994   0.426852
     4  O   -0.444006   0.573148
 Sum of Mulliken charges =  -2.00000   2.00000

 Dipole moment (field-independent basis, Debye):
    X=             -0.0000    Y=              0.0000    Z=             -0.0000  Tot=              0.0000
 Quadrupole moment (field-independent basis, Debye-Ang):
   XX=            -24.9444   YY=            -24.9444   ZZ=           -137.8027
   XY=              0.0000   XZ=              0.0000   YZ=              0.0000

 Normal termination of Gaussian 16 at Sun Jan  1 00:53:42 2023.
