 Gaussian 16, Revision A.03,
 Gaussian 16:  ES64L-G16RevA.03 25-Dec-2016

 -------------------------------------
 #p CCSD(T)/cc-pVTZ Guess=Read SCF=XQC
 -------------------------------------

 --------
 O2_O2_24
 --------
 Symbolic Z-matrix:
 Charge = -2 Multiplicity = 3

                         Standard orientation:
 ---------------------------------------------------------------------
 Center     Atomic      Atomic             Coordinates (Angstroms)
 Number     Number       Type             X           Y           Z
 ---------------------------------------------------------------------
      1          8           0        0.000000    0.000000    0.962478
      2          8           0        0.000000    0.000000    2.314859
      3          8           0        0.000000    0.000000   -2.314859
      4          8           0        0.000000    0.000000   -0.962478
 ---------------------------------------------------------------------

 SCF Done:  E(UHF) =  -298.962250257     A.U. after   12 cycles
 E2 =    -0.1033116981D+01 EUMP2 =    -0.29999536723798D+03
 CCSD(T)
 CCSD(T)= -0.30003396329D+03

 The electronic state is 3-SGG.
 Alpha  occ. eigenvalues --  -20.19855 -20.19853 -20.09937 -20.09937  -1.03249
 Alpha  occ. eigenvalues --   -1.01113  -0.67396  -0.61299  -0.22408  -0.22408
 Alpha  occ. eigenvalues --   -0.19540  -0.19540  -0.19034  -0.07074   0.01282
 Alpha  occ. eigenvalues --    0.01282   0.03460   0.03460
 Alpha virt. eigenvalues --    0.77888   0.85862   1.15239   1.15239   1.16745
 Alpha virt. eigenvalues --    1.18331   1.21315   1.21315   1.25429   1.25429
 Alpha virt. eigenvalues --    1.38546   1.38822   1.40210   1.40210   1.45849

  Beta  occ. eigenvalues --  -20.14958 -20.14950 -20.08480 -20.08480  -0.93779
  Beta  occ. eigenvalues --   -0.92014  -0.58249  -0.48951  -0.16552  -0.06889
  Beta  occ. eigenvalues --   -0.06889  -0.03794  -0.03794  -0.03485   0.22153
  Beta  occ. eigenvalues --    0.22153
  Beta virt. eigenvalues --    0.49714   0.49714   0.81830   0.89738   1.18280
  Beta virt. eigenvalues --    1.18578   1.22461   1.22461   1.24838   1.24838
  Beta virt. eigenvalues --    1.29721   1.29721   1.39053   1.39723   1.46408

 Mulliken charges and spin densities:
               1          2
     1  O   -0.247290   0.820779
     2  O   -0.752710   0.179221
     3  O   -0.752710   0.179221
     4  O   -0.247290   0.820779
 Sum of Mulliken charges =  -2.00000   2.00000

 Dipole moment (field-independent basis, Debye):
    X=             -0.0000    Y=             -0.0000    Z=              0.0000  Tot=              0.0000
 Quadrupole moment (field-independent basis, Debye-Ang):
   XX=            -25.1144   YY=            -25.1144   ZZ=            -67.0853
   XY=              0.0000   XZ=              0.0000   YZ=              0.0000

 Normal termination of Gaussian 16 at Sat Dec 31 20:13:30 2022.
