 Gaussian 16, Revision A.03,
 Gaussian 16:  ES64L-G16RevA.03 25-Dec-2016

 -------------------------------------
 #p CCSD(T)/cc-pVTZ Guess=Read SCF=XQC
 -------------------------------------

 ---------
 O2_O2_165
 ---------
 Symbolic Z-matrix:
 Charge = -2 Multiplicity = 3

                         Standard orientation:
 ---------------------------------------------------------------------
 Center     Atomic      Atomic             Coordinates (Angstroms)
 Number     Number       Type             X           Y           Z
 ---------------------------------------------------------------------
      1          8           0        0.000000    0.000000    1.960659
      2          8           0        0.000000    0.000000    3.313039
      3          8           0        0.000000    0.000000   -3.313039
      4          8           0        0.000000    0.000000   -1.960659
 ---------------------------------------------------------------------

 SCF Done:  E(UHF) =  -298.954885934     A.U. after   11 cycles
 E2 =    -0.1184958492D+01 EUMP2 =    -0.30013984442601D+03
 CCSD(T)
 CCSD(T)= -0.30011310251D+03

 The electronic state is 3-SGG.
 Alpha  occ. eigenvalues --  -20.21689 -20.21689 -20.18835 -20.18835  -1.06161
 Alpha  occ. eigenvalues --   -1.06155  -0.69691  -0.69643  -0.24719  -0.24719
 Alpha  occ. eigenvalues --   -0.24697  -0.24697  -0.19094  -0.18838  -0.03698
 Alpha  occ. eigenvalues --   -0.03698  -0.03653  -0.03653
 Alpha virt. eigenvalues --    0.70926   0.75131   1.08598   1.13854   1.13854
 Alpha virt. eigenvalues --    1.14283   1.14283   1.14696   1.16236   1.22195
 Alpha virt. eigenvalues --    1.22195   1.23373   1.23373   1.26864   1.36122

  Beta  occ. eigenvalues --  -20.18107 -20.18106 -20.16331 -20.16331  -0.98032
  Beta  occ. eigenvalues --   -0.98003  -0.58442  -0.58221  -0.16589  -0.16257
  Beta  occ. eigenvalues --   -0.10321  -0.10321  -0.09910  -0.09910   0.24203
  Beta  occ. eigenvalues --    0.24203
  Beta virt. eigenvalues --    0.35174   0.35174   0.73742   0.78660   1.10834
  Beta virt. eigenvalues --    1.15909   1.16975   1.18804   1.18804   1.19111
  Beta virt. eigenvalues --    1.19111   1.27512   1.27512   1.28135   1.28773

 Mulliken charges and spin densities:
               1          2
     1  O   -0.414072   0.613825
     2  O   -0.585928   0.386175
     3  O   -0.585928   0.386175
     4  O   -0.414072   0.613825
 Sum of Mulliken charges =  -2.00000   2.00000

 Dipole moment (field-independent basis, Debye):
    X=             -0.0000    Y=             -0.0000    Z=             -0.0000  Tot=              0.0000
 Quadrupole moment (field-independent basis, Debye-Ang):
   XX=            -24.9616   YY=            -24.9616   ZZ=           -103.7375
   XY=              0.0000   XZ=              0.0000   YZ=              0.0000

 Normal termination of Gaussian 16 at Sat Dec 31 23:05:07 2022.
