 Gaussian 16, Revision A.03,
 Gaussian 16:  ES64L-G16RevA.03 25-Dec-2016

 -------------------------------------
 #p CCSD(T)/cc-pVTZ Guess=Read SCF=XQC
 -------------------------------------

 ---------
 O2_O2_133
 ---------
 Symbolic Z-matrix:
 Charge = -2 Multiplicity = 3

                         Standard orientation:
 ---------------------------------------------------------------------
 Center     Atomic      Atomic             Coordinates (Angstroms)
 Number     Number       Type             X           Y           Z
 ---------------------------------------------------------------------
      1          8           0        0.000000    0.000000    1.734121
      2          8           0        0.000000    0.000000    3.086501
      3          8           0        0.000000    0.000000   -3.086501
      4          8           0        0.000000    0.000000   -1.734121
 ---------------------------------------------------------------------

 SCF Done:  E(UHF) =  -298.953671609     A.U. after   11 cycles
 E2 =    -0.1155389205D+01 EUMP2 =    -0.30010906081443D+03
 CCSD(T)
 CCSD(T)= -0.30010131643D+03

 The electronic state is 3-SGG.
 Alpha  occ. eigenvalues --  -20.21209 -20.21209 -20.17591 -20.17591  -1.05360
 Alpha  occ. eigenvalues --   -1.05336  -0.68823  -0.68675  -0.23951  -0.23951
 Alpha  occ. eigenvalues --   -0.23882  -0.23882  -0.18357  -0.17728  -0.02820
 Alpha  occ. eigenvalues --   -0.02820  -0.02693  -0.02693
 Alpha virt. eigenvalues --    0.70923   0.77171   1.07105   1.14232   1.14232
 Alpha virt. eigenvalues --    1.15347   1.15456   1.15456   1.16657   1.22243
 Alpha virt. eigenvalues --    1.22243   1.25407   1.25407   1.36706   1.37038

  Beta  occ. eigenvalues --  -20.17479 -20.17477 -20.15210 -20.15210  -0.97162
  Beta  occ. eigenvalues --   -0.97101  -0.57618  -0.57184  -0.15875  -0.15079
  Beta  occ. eigenvalues --   -0.09549  -0.09549  -0.08969  -0.08969   0.24427
  Beta  occ. eigenvalues --    0.24427
  Beta virt. eigenvalues --    0.36911   0.36911   0.73613   0.80872   1.09411
  Beta virt. eigenvalues --    1.16464   1.17435   1.19348   1.19348   1.20156
  Beta virt. eigenvalues --    1.20156   1.27462   1.27462   1.30925   1.30925

 Mulliken charges and spin densities:
               1          2
     1  O   -0.396142   0.639632
     2  O   -0.603858   0.360368
     3  O   -0.603858   0.360368
     4  O   -0.396142   0.639632
 Sum of Mulliken charges =  -2.00000   2.00000

 Dipole moment (field-independent basis, Debye):
    X=             -0.0000    Y=             -0.0000    Z=             -0.0000  Tot=              0.0000
 Quadrupole moment (field-independent basis, Debye-Ang):
   XX=            -24.9811   YY=            -24.9811   ZZ=            -93.3562
   XY=              0.0000   XZ=              0.0000   YZ=              0.0000

 Normal termination of Gaussian 16 at Sat Dec 31 22:25:16 2022.
