 Gaussian 16, Revision A.03,
 Gaussian 16:  ES64L-G16RevA.03 25-Dec-2016

 -------------------------------------
 #p CCSD(T)/cc-pVTZ Guess=Read SCF=XQC
 -------------------------------------

 ---------
 O2_O2_144
 ---------
 Symbolic Z-matrix:
 Charge = -2 Multiplicity = 3

                         Standard orientation:
 ---------------------------------------------------------------------
 Center     Atomic      Atomic             Coordinates (Angstroms)
 Number     Number       Type             X           Y           Z
 ---------------------------------------------------------------------
      1          8           0        0.000000    0.000000    1.811994
      2          8           0        0.000000    0.000000    3.164374
      3          8           0        0.000000    0.000000   -3.164374
      4          8           0        0.000000    0.000000   -1.811994
 ---------------------------------------------------------------------

 SCF Done:  E(UHF) =  -298.953883118     A.U. after   11 cycles
 E2 =    -0.1165913632D+01 EUMP2 =    -0.30011979675049D+03
 CCSD(T)
 CCSD(T)= -0.30010557535D+03

 The electronic state is 3-SGG.
 Alpha  occ. eigenvalues --  -20.21365 -20.21365 -20.18048 -20.18048  -1.05641
 Alpha  occ. eigenvalues --   -1.05626  -0.69129  -0.69028  -0.24218  -0.24218
 Alpha  occ. eigenvalues --   -0.24171  -0.24171  -0.18606  -0.18141  -0.03132
 Alpha  occ. eigenvalues --   -0.03132  -0.03042  -0.03042
 Alpha virt. eigenvalues --    0.70793   0.76465   1.07298   1.14145   1.14145
 Alpha virt. eigenvalues --    1.15017   1.15017   1.15167   1.16458   1.22269
 Alpha virt. eigenvalues --    1.22269   1.24582   1.24582   1.33856   1.36685

  Beta  occ. eigenvalues --  -20.17694 -20.17692 -20.15620 -20.15620  -0.97473
  Beta  occ. eigenvalues --   -0.97426  -0.57906  -0.57567  -0.16114  -0.15521
  Beta  occ. eigenvalues --   -0.09822  -0.09822  -0.09310  -0.09310   0.24361
  Beta  occ. eigenvalues --    0.24361
  Beta virt. eigenvalues --    0.36262   0.36262   0.73500   0.80111   1.09598
  Beta virt. eigenvalues --    1.16306   1.17225   1.19180   1.19180   1.19773
  Beta virt. eigenvalues --    1.19773   1.27539   1.27539   1.30049   1.30049

 Mulliken charges and spin densities:
               1          2
     1  O   -0.402967   0.629740
     2  O   -0.597033   0.370260
     3  O   -0.597033   0.370260
     4  O   -0.402967   0.629740
 Sum of Mulliken charges =  -2.00000   2.00000

 Dipole moment (field-independent basis, Debye):
    X=             -0.0000    Y=              0.0000    Z=             -0.0000  Tot=              0.0000
 Quadrupole moment (field-independent basis, Debye-Ang):
   XX=            -24.9729   YY=            -24.9729   ZZ=            -96.7996
   XY=              0.0000   XZ=              0.0000   YZ=              0.0000

 Normal termination of Gaussian 16 at Sat Dec 31 22:39:31 2022.
