 Gaussian 16, Revision A.03,
 Gaussian 16:  ES64L-G16RevA.03 25-Dec-2016

 -------------------------------------
 #p CCSD(T)/cc-pVTZ Guess=Read SCF=XQC
 -------------------------------------

 --------
 O2_O2_57
 --------
 Symbolic Z-matrix:
 Charge = -2 Multiplicity = 3

                         Standard orientation:
 ---------------------------------------------------------------------
 Center     Atomic      Atomic             Coordinates (Angstroms)
 Number     Number       Type             X           Y           Z
 ---------------------------------------------------------------------
      1          8           0        0.000000    0.000000    1.196095
      2          8           0        0.000000    0.000000    2.548475
      3          8           0        0.000000    0.000000   -2.548475
      4          8           0        0.000000    0.000000   -1.196095
 ---------------------------------------------------------------------

 SCF Done:  E(UHF) =  -298.963837910     A.U. after   12 cycles
 E2 =    -0.1069761893D+01 EUMP2 =    -0.30003359980316D+03
 CCSD(T)
 CCSD(T)= -0.30006477950D+03

 The electronic state is 3-SGG.
 Alpha  occ. eigenvalues --  -20.20465 -20.20464 -20.13122 -20.13122  -1.03475
 Alpha  occ. eigenvalues --   -1.02950  -0.66895  -0.64918  -0.22360  -0.22360
 Alpha  occ. eigenvalues --   -0.21458  -0.21458  -0.17588  -0.12749  -0.00234
 Alpha  occ. eigenvalues --   -0.00234   0.00728   0.00728
 Alpha virt. eigenvalues --    0.75786   0.82336   1.13552   1.13552   1.15953
 Alpha virt. eigenvalues --    1.17983   1.19259   1.19259   1.23077   1.23077
 Alpha virt. eigenvalues --    1.26758   1.35382   1.35382   1.38488   1.39494

  Beta  occ. eigenvalues --  -20.15996 -20.15992 -20.11296 -20.11296  -0.94689
  Beta  occ. eigenvalues --   -0.94132  -0.56316  -0.52924  -0.15273  -0.09647
  Beta  occ. eigenvalues --   -0.07547  -0.07547  -0.05878  -0.05878   0.23888
  Beta  occ. eigenvalues --    0.23888
  Beta virt. eigenvalues --    0.44048   0.44048   0.79314   0.86245   1.17120
  Beta virt. eigenvalues --    1.18397   1.20287   1.20287   1.23225   1.23225
  Beta virt. eigenvalues --    1.27295   1.27295   1.28894   1.38845   1.39996

 Mulliken charges and spin densities:
               1          2
     1  O   -0.315919   0.751101
     2  O   -0.684081   0.248899
     3  O   -0.684081   0.248899
     4  O   -0.315919   0.751101
 Sum of Mulliken charges =  -2.00000   2.00000

 Dipole moment (field-independent basis, Debye):
    X=             -0.0000    Y=              0.0000    Z=             -0.0000  Tot=              0.0000
 Quadrupole moment (field-independent basis, Debye-Ang):
   XX=            -25.0913   YY=            -25.0913   ZZ=            -73.2734
   XY=              0.0000   XZ=              0.0000   YZ=              0.0000

 Normal termination of Gaussian 16 at Sat Dec 31 20:52:45 2022.
