 Gaussian 16, Revision A.03,
 Gaussian 16:  ES64L-G16RevA.03 25-Dec-2016

 -------------------------------------
 #p CCSD(T)/cc-pVTZ Guess=Read SCF=XQC
 -------------------------------------

 --------
 O2_O2_87
 --------
 Symbolic Z-matrix:
 Charge = -2 Multiplicity = 3

                         Standard orientation:
 ---------------------------------------------------------------------
 Center     Atomic      Atomic             Coordinates (Angstroms)
 Number     Number       Type             X           Y           Z
 ---------------------------------------------------------------------
      1          8           0        0.000000    0.000000    1.408474
      2          8           0        0.000000    0.000000    2.760854
      3          8           0        0.000000    0.000000   -2.760854
      4          8           0        0.000000    0.000000   -1.408474
 ---------------------------------------------------------------------

 SCF Done:  E(UHF) =  -298.957038780     A.U. after   12 cycles
 E2 =    -0.1106063219D+01 EUMP2 =    -0.30006310199912D+03
 CCSD(T)
 CCSD(T)= -0.30008097740D+03

 The electronic state is 3-SGG.
 Alpha  occ. eigenvalues --  -20.20715 -20.20715 -20.15225 -20.15225  -1.04170
 Alpha  occ. eigenvalues --   -1.04017  -0.67529  -0.66814  -0.22881  -0.22881
 Alpha  occ. eigenvalues --   -0.22554  -0.22554  -0.17547  -0.15379  -0.01366
 Alpha  occ. eigenvalues --   -0.01366  -0.00915  -0.00915
 Alpha virt. eigenvalues --    0.73505   0.80123   1.13461   1.13797   1.13797
 Alpha virt. eigenvalues --    1.15663   1.17634   1.17634   1.18086   1.22211
 Alpha virt. eigenvalues --    1.22211   1.30710   1.30710   1.37906   1.38452

  Beta  occ. eigenvalues --  -20.16610 -20.16608 -20.13126 -20.13126  -0.95721
  Beta  occ. eigenvalues --   -0.95503  -0.56511  -0.55089  -0.15148  -0.12526
  Beta  occ. eigenvalues --   -0.08340  -0.08340  -0.07287  -0.07287   0.24423
  Beta  occ. eigenvalues --    0.24423
  Beta virt. eigenvalues --    0.40508   0.40508   0.76581   0.83977   1.15177
  Beta virt. eigenvalues --    1.16767   1.19181   1.19726   1.19726   1.21955
  Beta virt. eigenvalues --    1.21955   1.26880   1.26880   1.36576   1.36576

 Mulliken charges and spin densities:
               1          2
     1  O   -0.356542   0.696901
     2  O   -0.643458   0.303099
     3  O   -0.643458   0.303099
     4  O   -0.356542   0.696901
 Sum of Mulliken charges =  -2.00000   2.00000

 Dipole moment (field-independent basis, Debye):
    X=             -0.0000    Y=              0.0000    Z=              0.0000  Tot=              0.0000
 Quadrupole moment (field-independent basis, Debye-Ang):
   XX=            -25.0374   YY=            -25.0374   ZZ=            -80.3987
   XY=              0.0000   XZ=              0.0000   YZ=              0.0000

 Normal termination of Gaussian 16 at Sat Dec 31 21:28:28 2022.
