 Gaussian 16, Revision A.03,
 Gaussian 16:  ES64L-G16RevA.03 25-Dec-2016

 -------------------------------------
 #p CCSD(T)/cc-pVTZ Guess=Read SCF=XQC
 -------------------------------------

 ---------
 O2_O2_123
 ---------
 Symbolic Z-matrix:
 Charge = -2 Multiplicity = 3

                         Standard orientation:
 ---------------------------------------------------------------------
 Center     Atomic      Atomic             Coordinates (Angstroms)
 Number     Number       Type             X           Y           Z
 ---------------------------------------------------------------------
      1          8           0        0.000000    0.000000    1.663329
      2          8           0        0.000000    0.000000    3.015709
      3          8           0        0.000000    0.000000   -3.015709
      4          8           0        0.000000    0.000000   -1.663329
 ---------------------------------------------------------------------

 SCF Done:  E(UHF) =  -298.953742057     A.U. after   11 cycles
 E2 =    -0.1145430470D+01 EUMP2 =    -0.30009917252682D+03
 CCSD(T)
 CCSD(T)= -0.30009724575D+03

 The electronic state is 3-SGG.
 Alpha  occ. eigenvalues --  -20.21079 -20.21079 -20.17144 -20.17144  -1.05101
 Alpha  occ. eigenvalues --   -1.05066  -0.68540  -0.68331  -0.23708  -0.23708
 Alpha  occ. eigenvalues --   -0.23612  -0.23612  -0.18140  -0.17314  -0.02525
 Alpha  occ. eigenvalues --   -0.02525  -0.02355  -0.02355
 Alpha virt. eigenvalues --    0.71218   0.77811   1.07406   1.14252   1.14252
 Alpha virt. eigenvalues --    1.15471   1.15886   1.15886   1.16881   1.22193
 Alpha virt. eigenvalues --    1.22193   1.26296   1.26296   1.37044   1.37329

  Beta  occ. eigenvalues --  -20.17285 -20.17284 -20.14812 -20.14812  -0.96868
  Beta  occ. eigenvalues --   -0.96789  -0.57356  -0.56805  -0.15670  -0.14633
  Beta  occ. eigenvalues --   -0.09294  -0.09294  -0.08641  -0.08641   0.24472
  Beta  occ. eigenvalues --    0.24472
  Beta virt. eigenvalues --    0.37559   0.37559   0.73929   0.81555   1.09689
  Beta virt. eigenvalues --    1.16575   1.17669   1.19475   1.19475   1.20525
  Beta virt. eigenvalues --    1.20525   1.27342   1.27342   1.31873   1.31873

 Mulliken charges and spin densities:
               1          2
     1  O   -0.389208   0.649731
     2  O   -0.610792   0.350269
     3  O   -0.610792   0.350269
     4  O   -0.389208   0.649731
 Sum of Mulliken charges =  -2.00000   2.00000

 Dipole moment (field-independent basis, Debye):
    X=             -0.0000    Y=              0.0000    Z=             -0.0000  Tot=              0.0000
 Quadrupole moment (field-independent basis, Debye-Ang):
   XX=            -24.9901   YY=            -24.9901   ZZ=            -90.3406
   XY=              0.0000   XZ=              0.0000   YZ=              0.0000

 Normal termination of Gaussian 16 at Sat Dec 31 22:12:18 2022.
