 Gaussian 16, Revision A.03,
 Gaussian 16:  ES64L-G16RevA.03 25-Dec-2016

 -------------------------------------
 #p CCSD(T)/cc-pVTZ Guess=Read SCF=XQC
 -------------------------------------

 --------
 O2_O2_74
 --------
 Symbolic Z-matrix:
 Charge = -2 Multiplicity = 3

                         Standard orientation:
 ---------------------------------------------------------------------
 Center     Atomic      Atomic             Coordinates (Angstroms)
 Number     Number       Type             X           Y           Z
 ---------------------------------------------------------------------
      1          8           0        0.000000    0.000000    1.316443
      2          8           0        0.000000    0.000000    2.668823
      3          8           0        0.000000    0.000000   -2.668823
      4          8           0        0.000000    0.000000   -1.316443
 ---------------------------------------------------------------------

 SCF Done:  E(UHF) =  -298.959665279     A.U. after   12 cycles
 E2 =    -0.1090557651D+01 EUMP2 =    -0.30005022292986D+03
 CCSD(T)
 CCSD(T)= -0.30007439777D+03

 The electronic state is 3-SGG.
 Alpha  occ. eigenvalues --  -20.20614 -20.20614 -20.14382 -20.14382  -1.03850
 Alpha  occ. eigenvalues --   -1.03591  -0.67205  -0.66094  -0.22625  -0.22625
 Alpha  occ. eigenvalues --   -0.22119  -0.22119  -0.17472  -0.14407  -0.00899
 Alpha  occ. eigenvalues --   -0.00899  -0.00270  -0.00270
 Alpha virt. eigenvalues --    0.74526   0.81023   1.13571   1.13571   1.15735
 Alpha virt. eigenvalues --    1.16804   1.18321   1.18321   1.19706   1.22462
 Alpha virt. eigenvalues --    1.22462   1.32691   1.32691   1.38178   1.38884

  Beta  occ. eigenvalues --  -20.16361 -20.16358 -20.12392 -20.12392  -0.95277
  Beta  occ. eigenvalues --   -0.94953  -0.56323  -0.54264  -0.15112  -0.11461
  Beta  occ. eigenvalues --   -0.07991  -0.07991  -0.06716  -0.06716   0.24270
  Beta  occ. eigenvalues --    0.24270
  Beta virt. eigenvalues --    0.41891   0.41891   0.77800   0.84904   1.16856
  Beta virt. eigenvalues --    1.17514   1.19850   1.19850   1.21685   1.22496
  Beta virt. eigenvalues --    1.22496   1.26912   1.26912   1.38565   1.38669

 Mulliken charges and spin densities:
               1          2
     1  O   -0.340863   0.718734
     2  O   -0.659137   0.281266
     3  O   -0.659137   0.281266
     4  O   -0.340863   0.718734
 Sum of Mulliken charges =  -2.00000   2.00000

 Dipole moment (field-independent basis, Debye):
    X=             -0.0000    Y=              0.0000    Z=              0.0000  Tot=              0.0000
 Quadrupole moment (field-independent basis, Debye-Ang):
   XX=            -25.0600   YY=            -25.0600   ZZ=            -77.1711
   XY=              0.0000   XZ=              0.0000   YZ=              0.0000

 Normal termination of Gaussian 16 at Sat Dec 31 21:12:48 2022.
