 Gaussian 16, Revision A.03,
 Gaussian 16:  ES64L-G16RevA.03 25-Dec-2016

 -------------------------------------
 #p CCSD(T)/cc-pVTZ Guess=Read SCF=XQC
 -------------------------------------

 ---------
 O2_O2_111
 ---------
 Symbolic Z-matrix:
 Charge = -2 Multiplicity = 3

                         Standard orientation:
 ---------------------------------------------------------------------
 Center     Atomic      Atomic             Coordinates (Angstroms)
 Number     Number       Type             X           Y           Z
 ---------------------------------------------------------------------
      1          8           0        0.000000    0.000000    1.578377
      2          8           0        0.000000    0.000000    2.930757
      3          8           0        0.000000    0.000000   -2.930757
      4          8           0        0.000000    0.000000   -1.578377
 ---------------------------------------------------------------------

 SCF Done:  E(UHF) =  -298.954246547     A.U. after   11 cycles
 E2 =    -0.1132935220D+01 EUMP2 =    -0.30008718176652D+03
 CCSD(T)
 CCSD(T)= -0.30009210746D+03

 The electronic state is 3-SGG.
 Alpha  occ. eigenvalues --  -20.20939 -20.20939 -20.16562 -20.16562  -1.04788
 Alpha  occ. eigenvalues --   -1.04731  -0.68197  -0.67882  -0.23421  -0.23421
 Alpha  occ. eigenvalues --   -0.23276  -0.23276  -0.17901  -0.16759  -0.02157
 Alpha  occ. eigenvalues --   -0.02157  -0.01919  -0.01919
 Alpha virt. eigenvalues --    0.71802   0.78573   1.08505   1.14188   1.14188
 Alpha virt. eigenvalues --    1.15571   1.16438   1.16438   1.17201   1.22134
 Alpha virt. eigenvalues --    1.22134   1.27556   1.27556   1.37349   1.37691

  Beta  occ. eigenvalues --  -20.17057 -20.17056 -20.14298 -20.14298  -0.96501
  Beta  occ. eigenvalues --   -0.96391  -0.57049  -0.56303  -0.15448  -0.14032
  Beta  occ. eigenvalues --   -0.08981  -0.08981  -0.08222  -0.08222   0.24499
  Beta  occ. eigenvalues --    0.24499
  Beta virt. eigenvalues --    0.38423   0.38423   0.74588   0.82361   1.10713
  Beta virt. eigenvalues --    1.16667   1.18008   1.19589   1.19589   1.20987
  Beta virt. eigenvalues --    1.20987   1.27161   1.27161   1.33219   1.33219

 Mulliken charges and spin densities:
               1          2
     1  O   -0.379804   0.663438
     2  O   -0.620196   0.336562
     3  O   -0.620196   0.336562
     4  O   -0.379804   0.663438
 Sum of Mulliken charges =  -2.00000   2.00000

 Dipole moment (field-independent basis, Debye):
    X=             -0.0000    Y=              0.0000    Z=             -0.0000  Tot=              0.0000
 Quadrupole moment (field-independent basis, Debye-Ang):
   XX=            -25.0032   YY=            -25.0032   ZZ=            -86.8669
   XY=              0.0000   XZ=              0.0000   YZ=              0.0000

 Normal termination of Gaussian 16 at Sat Dec 31 21:57:39 2022.
