 Gaussian 16, Revision A.03,
 Gaussian 16:  ES64L-G16RevA.03 25-Dec-2016

 -------------------------------------
 #p CCSD(T)/cc-pVTZ Guess=Read SCF=XQC
 -------------------------------------

 ---------
 O2_O2_120
 ---------
 Symbolic Z-matrix:
 Charge = -2 Multiplicity = 3

                         Standard orientation:
 ---------------------------------------------------------------------
 Center     Atomic      Atomic             Coordinates (Angstroms)
 Number     Number       Type             X           Y           Z
 ---------------------------------------------------------------------
      1          8           0        0.000000    0.000000    1.642091
      2          8           0        0.000000    0.000000    2.994471
      3          8           0        0.000000    0.000000   -2.994471
      4          8           0        0.000000    0.000000   -1.642091
 ---------------------------------------------------------------------

 SCF Done:  E(UHF) =  -298.953821431     A.U. after   11 cycles
 E2 =    -0.1142364107D+01 EUMP2 =    -0.30009618553837D+03
 CCSD(T)
 CCSD(T)= -0.30009598722D+03

 The electronic state is 3-SGG.
 Alpha  occ. eigenvalues --  -20.21042 -20.21042 -20.17003 -20.17003  -1.05023
 Alpha  occ. eigenvalues --   -1.04983  -0.68454  -0.68223  -0.23636  -0.23636
 Alpha  occ. eigenvalues --   -0.23529  -0.23529  -0.18078  -0.17182  -0.02434
 Alpha  occ. eigenvalues --   -0.02434  -0.02250  -0.02250
 Alpha virt. eigenvalues --    0.71341   0.78002   1.07601   1.14245   1.14245
 Alpha virt. eigenvalues --    1.15501   1.16020   1.16020   1.16956   1.22177
 Alpha virt. eigenvalues --    1.22177   1.26591   1.26591   1.37123   1.37418

  Beta  occ. eigenvalues --  -20.17228 -20.17226 -20.14688 -20.14688  -0.96778
  Beta  occ. eigenvalues --   -0.96692  -0.57278  -0.56684  -0.15611  -0.14491
  Beta  occ. eigenvalues --   -0.09216  -0.09216  -0.08539  -0.08539   0.24482
  Beta  occ. eigenvalues --    0.24482
  Beta virt. eigenvalues --    0.37766   0.37766   0.74065   0.81758   1.09870
  Beta virt. eigenvalues --    1.16602   1.17747   1.19507   1.19507   1.20638
  Beta virt. eigenvalues --    1.20638   1.27299   1.27299   1.32188   1.32188

 Mulliken charges and spin densities:
               1          2
     1  O   -0.386975   0.652988
     2  O   -0.613025   0.347012
     3  O   -0.613025   0.347012
     4  O   -0.386975   0.652988
 Sum of Mulliken charges =  -2.00000   2.00000

 Dipole moment (field-independent basis, Debye):
    X=             -0.0000    Y=              0.0000    Z=              0.0000  Tot=              0.0000
 Quadrupole moment (field-independent basis, Debye-Ang):
   XX=            -24.9931   YY=            -24.9931   ZZ=            -89.4573
   XY=              0.0000   XZ=              0.0000   YZ=              0.0000

 Normal termination of Gaussian 16 at Sat Dec 31 22:08:42 2022.
