 Gaussian 16, Revision A.03,
 Gaussian 16:  ES64L-G16RevA.03 25-Dec-2016

 -------------------------------------
 #p CCSD(T)/cc-pVTZ Guess=Read SCF=XQC
 -------------------------------------

 ---------
 O2_O2_101
 ---------
 Symbolic Z-matrix:
 Charge = -2 Multiplicity = 3

                         Standard orientation:
 ---------------------------------------------------------------------
 Center     Atomic      Atomic             Coordinates (Angstroms)
 Number     Number       Type             X           Y           Z
 ---------------------------------------------------------------------
      1          8           0        0.000000    0.000000    1.507584
      2          8           0        0.000000    0.000000    2.859964
      3          8           0        0.000000    0.000000   -2.859964
      4          8           0        0.000000    0.000000   -1.507584
 ---------------------------------------------------------------------

 SCF Done:  E(UHF) =  -298.955092938     A.U. after   11 cycles
 E2 =    -0.1122042338D+01 EUMP2 =    -0.30007713527609D+03
 CCSD(T)
 CCSD(T)= -0.30008761127D+03

 The electronic state is 3-SGG.
 Alpha  occ. eigenvalues --  -20.20837 -20.20837 -20.16036 -20.16036  -1.04528
 Alpha  occ. eigenvalues --   -1.04442  -0.67913  -0.67469  -0.23188  -0.23188
 Alpha  occ. eigenvalues --   -0.22985  -0.22985  -0.17728  -0.16236  -0.01837
 Alpha  occ. eigenvalues --   -0.01837  -0.01525  -0.01525
 Alpha virt. eigenvalues --    0.72449   0.79210   1.10117   1.14058   1.14058
 Alpha virt. eigenvalues --    1.15619   1.16923   1.16923   1.17511   1.22120
 Alpha virt. eigenvalues --    1.22120   1.28773   1.28773   1.37588   1.38002

  Beta  occ. eigenvalues --  -20.16871 -20.16868 -20.13835 -20.13835  -0.96183
  Beta  occ. eigenvalues --   -0.96038  -0.56806  -0.55836  -0.15295  -0.13462
  Beta  occ. eigenvalues --   -0.08715  -0.08715  -0.07849  -0.07849   0.24493
  Beta  occ. eigenvalues --    0.24493
  Beta virt. eigenvalues --    0.39228   0.39228   0.75338   0.83028   1.12208
  Beta virt. eigenvalues --    1.16715   1.18360   1.19653   1.19653   1.21385
  Beta virt. eigenvalues --    1.21385   1.27013   1.27013   1.34516   1.34516

 Mulliken charges and spin densities:
               1          2
     1  O   -0.370906   0.676341
     2  O   -0.629094   0.323659
     3  O   -0.629094   0.323659
     4  O   -0.370906   0.676341
 Sum of Mulliken charges =  -2.00000   2.00000

 Dipole moment (field-independent basis, Debye):
    X=             -0.0000    Y=             -0.0000    Z=             -0.0000  Tot=              0.0000
 Quadrupole moment (field-independent basis, Debye-Ang):
   XX=            -25.0161   YY=            -25.0161   ZZ=            -84.0935
   XY=              0.0000   XZ=              0.0000   YZ=              0.0000

 Normal termination of Gaussian 16 at Sat Dec 31 21:45:45 2022.
