 Gaussian 16, Revision A.03,
 Gaussian 16:  ES64L-G16RevA.03 25-Dec-2016

 -------------------------------------
 #p CCSD(T)/cc-pVTZ Guess=Read SCF=XQC
 -------------------------------------

 ---------
 O2_O2_240
 ---------
 Symbolic Z-matrix:
 Charge = -2 Multiplicity = 3

                         Standard orientation:
 ---------------------------------------------------------------------
 Center     Atomic      Atomic             Coordinates (Angstroms)
 Number     Number       Type             X           Y           Z
 ---------------------------------------------------------------------
      1          8           0        0.000000    0.000000    2.491606
      2          8           0        0.000000    0.000000    3.843986
      3          8           0        0.000000    0.000000   -3.843986
      4          8           0        0.000000    0.000000   -2.491606
 ---------------------------------------------------------------------

 SCF Done:  E(UHF) =  -298.960865175     A.U. after   11 cycles
 E2 =    -0.1246344573D+01 EUMP2 =    -0.30020720974723D+03
 CCSD(T)
 CCSD(T)= -0.30013468678D+03

 The electronic state is 3-SGG.
 Alpha  occ. eigenvalues --  -20.22880 -20.22880 -20.20988 -20.20988  -1.07768
 Alpha  occ. eigenvalues --   -1.07768  -0.71391  -0.71389  -0.26300  -0.26300
 Alpha  occ. eigenvalues --   -0.26299  -0.26299  -0.20706  -0.20687  -0.05396
 Alpha  occ. eigenvalues --   -0.05396  -0.05394  -0.05394
 Alpha virt. eigenvalues --    0.71112   0.71617   1.11279   1.12034   1.12449
 Alpha virt. eigenvalues --    1.12449   1.12468   1.12468   1.16291   1.17068
 Alpha virt. eigenvalues --    1.21043   1.21043   1.21094   1.21094   1.34549

  Beta  occ. eigenvalues --  -20.19478 -20.19478 -20.18310 -20.18310  -0.99684
  Beta  occ. eigenvalues --   -0.99676  -0.60085  -0.60009  -0.18188  -0.18155
  Beta  occ. eigenvalues --   -0.11844  -0.11844  -0.11624  -0.11624   0.23552
  Beta  occ. eigenvalues --    0.23552
  Beta virt. eigenvalues --    0.32325   0.32325   0.74253   0.74847   1.13178
  Beta virt. eigenvalues --    1.13777   1.17138   1.17361   1.17361   1.17377
  Beta virt. eigenvalues --    1.17377   1.18041   1.26369   1.26369   1.26424

 Mulliken charges and spin densities:
               1          2
     1  O   -0.440698   0.577469
     2  O   -0.559302   0.422531
     3  O   -0.559302   0.422531
     4  O   -0.440698   0.577469
 Sum of Mulliken charges =  -2.00000   2.00000

 Dipole moment (field-independent basis, Debye):
    X=             -0.0000    Y=             -0.0000    Z=             -0.0000  Tot=              0.0000
 Quadrupole moment (field-independent basis, Debye-Ang):
   XX=            -24.9455   YY=            -24.9455   ZZ=           -132.2727
   XY=              0.0000   XZ=              0.0000   YZ=              0.0000

 Normal termination of Gaussian 16 at Sun Jan  1 00:37:37 2023.
