 Gaussian 16, Revision A.03,
 Gaussian 16:  ES64L-G16RevA.03 25-Dec-2016

 -------------------------------------
 #p CCSD(T)/cc-pVTZ Guess=Read SCF=XQC
 -------------------------------------

 --------
 O2_O2_44
 --------
 Symbolic Z-matrix:
 Charge = -2 Multiplicity = 3

                         Standard orientation:
 ---------------------------------------------------------------------
 Center     Atomic      Atomic             Coordinates (Angstroms)
 Number     Number       Type             X           Y           Z
 ---------------------------------------------------------------------
      1          8           0        0.000000    0.000000    1.104065
      2          8           0        0.000000    0.000000    2.456445
      3          8           0        0.000000    0.000000   -2.456445
      4          8           0        0.000000    0.000000   -1.104065
 ---------------------------------------------------------------------

 SCF Done:  E(UHF) =  -298.966378277     A.U. after   12 cycles
 E2 =    -0.1054146994D+01 EUMP2 =    -0.30002052527080D+03
 CCSD(T)
 CCSD(T)= -0.30005577489D+03

 The electronic state is 3-SGG.
 Alpha  occ. eigenvalues --  -20.20296 -20.20296 -20.12009 -20.12008  -1.03257
 Alpha  occ. eigenvalues --   -1.02352  -0.66834  -0.63757  -0.22247  -0.22247
 Alpha  occ. eigenvalues --   -0.20836  -0.20836  -0.17920  -0.11028   0.00325
 Alpha  occ. eigenvalues --    0.00325   0.01651   0.01651
 Alpha virt. eigenvalues --    0.76663   0.83512   1.13927   1.13927   1.16215
 Alpha virt. eigenvalues --    1.18201   1.20019   1.20019   1.23797   1.23797
 Alpha virt. eigenvalues --    1.33463   1.37388   1.37388   1.38675   1.40204

  Beta  occ. eigenvalues --  -20.15653 -20.15648 -20.10322 -20.10322  -0.94258
  Beta  occ. eigenvalues --   -0.93397  -0.56643  -0.51622  -0.15609  -0.07772
  Beta  occ. eigenvalues --   -0.07235  -0.07235  -0.05147  -0.05147   0.23399
  Beta  occ. eigenvalues --    0.23399
  Beta virt. eigenvalues --    0.46019   0.46019   0.80369   0.87428   1.17460
  Beta virt. eigenvalues --    1.18577   1.20957   1.20957   1.23815   1.23815
  Beta virt. eigenvalues --    1.27935   1.27935   1.35525   1.38998   1.40593

 Mulliken charges and spin densities:
               1          2
     1  O   -0.292385   0.778187
     2  O   -0.707615   0.221813
     3  O   -0.707615   0.221813
     4  O   -0.292385   0.778187
 Sum of Mulliken charges =  -2.00000   2.00000

 Dipole moment (field-independent basis, Debye):
    X=             -0.0000    Y=              0.0000    Z=              0.0000  Tot=              0.0000
 Quadrupole moment (field-independent basis, Debye-Ang):
   XX=            -25.1114   YY=            -25.1114   ZZ=            -70.5827
   XY=              0.0000   XZ=              0.0000   YZ=              0.0000

 Normal termination of Gaussian 16 at Sat Dec 31 20:37:17 2022.
