 Gaussian 16, Revision A.03,
 Gaussian 16:  ES64L-G16RevA.03 25-Dec-2016

 -------------------------------------
 #p CCSD(T)/cc-pVTZ Guess=Read SCF=XQC
 -------------------------------------

 ---------
 O2_O2_286
 ---------
 Symbolic Z-matrix:
 Charge = -2 Multiplicity = 3

                         Standard orientation:
 ---------------------------------------------------------------------
 Center     Atomic      Atomic             Coordinates (Angstroms)
 Number     Number       Type             X           Y           Z
 ---------------------------------------------------------------------
      1          8           0        0.000000    0.000000    2.817252
      2          8           0        0.000000    0.000000    4.169633
      3          8           0        0.000000    0.000000   -4.169633
      4          8           0        0.000000    0.000000   -2.817252
 ---------------------------------------------------------------------

 SCF Done:  E(UHF) =  -298.964437985     A.U. after   10 cycles
 E2 =    -0.1281754720D+01 EUMP2 =    -0.30024619270530D+03
 CCSD(T)
 CCSD(T)= -0.30014478848D+03

 The electronic state is 3-SGG.
 Alpha  occ. eigenvalues --  -20.23510 -20.23510 -20.21960 -20.21960  -1.08547
 Alpha  occ. eigenvalues --   -1.08547  -0.72202  -0.72202  -0.27074  -0.27074
 Alpha  occ. eigenvalues --   -0.27074  -0.27074  -0.21513  -0.21510  -0.06206
 Alpha  occ. eigenvalues --   -0.06206  -0.06205  -0.06205
 Alpha virt. eigenvalues --    0.70475   0.70546   1.10779   1.10885   1.11685
 Alpha virt. eigenvalues --    1.11685   1.11686   1.11686   1.15694   1.15779
 Alpha virt. eigenvalues --    1.20268   1.20268   1.20272   1.20272   1.33784

  Beta  occ. eigenvalues --  -20.20171 -20.20171 -20.19215 -20.19215  -1.00471
  Beta  occ. eigenvalues --   -1.00466  -0.60878  -0.60826  -0.18994  -0.18985
  Beta  occ. eigenvalues --   -0.12588  -0.12588  -0.12426  -0.12426   0.23195
  Beta  occ. eigenvalues --    0.23195
  Beta virt. eigenvalues --    0.31063   0.31063   0.73649   0.73733   1.12644
  Beta virt. eigenvalues --    1.12740   1.16567   1.16606   1.16606   1.16608
  Beta virt. eigenvalues --    1.16608   1.16674   1.25587   1.25587   1.25593

 Mulliken charges and spin densities:
               1          2
     1  O   -0.451259   0.563725
     2  O   -0.548741   0.436275
     3  O   -0.548741   0.436275
     4  O   -0.451259   0.563725
 Sum of Mulliken charges =  -2.00000   2.00000

 Dipole moment (field-independent basis, Debye):
    X=             -0.0000    Y=             -0.0000    Z=             -0.0000  Tot=              0.0000
 Quadrupole moment (field-independent basis, Debye-Ang):
   XX=            -24.9422   YY=            -24.9422   ZZ=           -152.6059
   XY=              0.0000   XZ=              0.0000   YZ=              0.0000

 Normal termination of Gaussian 16 at Sun Jan  1 01:33:52 2023.
