 Gaussian 16, Revision A.03,
 Gaussian 16:  ES64L-G16RevA.03 25-Dec-2016

 -------------------------------------
 #p CCSD(T)/cc-pVTZ Guess=Read SCF=XQC
 -------------------------------------

 ---------
 O2_O2_195
 ---------
 Symbolic Z-matrix:
 Charge = -2 Multiplicity = 3

                         Standard orientation:
 ---------------------------------------------------------------------
 Center     Atomic      Atomic             Coordinates (Angstroms)
 Number     Number       Type             X           Y           Z
 ---------------------------------------------------------------------
      1          8           0        0.000000    0.000000    2.173037
      2          8           0        0.000000    0.000000    3.525417
      3          8           0        0.000000    0.000000   -3.525417
      4          8           0        0.000000    0.000000   -2.173037
 ---------------------------------------------------------------------

 SCF Done:  E(UHF) =  -298.957092087     A.U. after   11 cycles
 E2 =    -0.1210417903D+01 EUMP2 =    -0.30016750999044D+03
 CCSD(T)
 CCSD(T)= -0.30012263386D+03

 The electronic state is 3-SGG.
 Alpha  occ. eigenvalues --  -20.22176 -20.22176 -20.19802 -20.19802  -1.06855
 Alpha  occ. eigenvalues --   -1.06853  -0.70431  -0.70415  -0.25398  -0.25398
 Alpha  occ. eigenvalues --   -0.25391  -0.25391  -0.19776  -0.19676  -0.04438
 Alpha  occ. eigenvalues --   -0.04438  -0.04422  -0.04422
 Alpha virt. eigenvalues --    0.71261   0.73416   1.10561   1.13302   1.13302
 Alpha virt. eigenvalues --    1.13438   1.13438   1.13727   1.16271   1.20692
 Alpha virt. eigenvalues --    1.21829   1.21829   1.22212   1.22212   1.35444

  Beta  occ. eigenvalues --  -20.18685 -20.18684 -20.17213 -20.17213  -0.98755
  Beta  occ. eigenvalues --   -0.98738  -0.59154  -0.59022  -0.17262  -0.17125
  Beta  occ. eigenvalues --   -0.10979  -0.10979  -0.10667  -0.10667   0.23944
  Beta  occ. eigenvalues --    0.23944
  Beta virt. eigenvalues --    0.33878   0.33878   0.74260   0.76786   1.12656
  Beta virt. eigenvalues --    1.15142   1.17010   1.18215   1.18215   1.18318
  Beta virt. eigenvalues --    1.18318   1.21893   1.27160   1.27160   1.27565

 Mulliken charges and spin densities:
               1          2
     1  O   -0.426629   0.596282
     2  O   -0.573371   0.403718
     3  O   -0.573371   0.403718
     4  O   -0.426629   0.596282
 Sum of Mulliken charges =  -2.00000   2.00000

 Dipole moment (field-independent basis, Debye):
    X=             -0.0000    Y=             -0.0000    Z=              0.0000  Tot=              0.0000
 Quadrupole moment (field-independent basis, Debye-Ang):
   XX=            -24.9521   YY=            -24.9521   ZZ=           -114.4574
   XY=              0.0000   XZ=              0.0000   YZ=              0.0000

 Normal termination of Gaussian 16 at Sat Dec 31 23:42:24 2022.
