 Gaussian 16, Revision A.03,
 Gaussian 16:  ES64L-G16RevA.03 25-Dec-2016

 -------------------------------------
 #p CCSD(T)/cc-pVTZ Guess=Read SCF=XQC
 -------------------------------------

 ---------
 O2_O2_146
 ---------
 Symbolic Z-matrix:
 Charge = -2 Multiplicity = 3

                         Standard orientation:
 ---------------------------------------------------------------------
 Center     Atomic      Atomic             Coordinates (Angstroms)
 Number     Number       Type             X           Y           Z
 ---------------------------------------------------------------------
      1          8           0        0.000000    0.000000    1.826152
      2          8           0        0.000000    0.000000    3.178532
      3          8           0        0.000000    0.000000   -3.178532
      4          8           0        0.000000    0.000000   -1.826152
 ---------------------------------------------------------------------

 SCF Done:  E(UHF) =  -298.953948570     A.U. after   11 cycles
 E2 =    -0.1167782991D+01 EUMP2 =    -0.30012173156070D+03
 CCSD(T)
 CCSD(T)= -0.30010632511D+03

 The electronic state is 3-SGG.
 Alpha  occ. eigenvalues --  -20.21395 -20.21395 -20.18128 -20.18128  -1.05692
 Alpha  occ. eigenvalues --   -1.05678  -0.69184  -0.69090  -0.24266  -0.24266
 Alpha  occ. eigenvalues --   -0.24222  -0.24222  -0.18652  -0.18213  -0.03188
 Alpha  occ. eigenvalues --   -0.03188  -0.03103  -0.03103
 Alpha virt. eigenvalues --    0.70788   0.76336   1.07380   1.14124   1.14124
 Alpha virt. eigenvalues --    1.14942   1.14942   1.15129   1.16428   1.22270
 Alpha virt. eigenvalues --    1.22270   1.24448   1.24448   1.33098   1.36617

  Beta  occ. eigenvalues --  -20.17733 -20.17732 -20.15691 -20.15691  -0.97529
  Beta  occ. eigenvalues --   -0.97484  -0.57958  -0.57634  -0.16159  -0.15597
  Beta  occ. eigenvalues --   -0.09871  -0.09871  -0.09370  -0.09370   0.24347
  Beta  occ. eigenvalues --    0.24347
  Beta virt. eigenvalues --    0.36150   0.36150   0.73502   0.79972   1.09677
  Beta virt. eigenvalues --    1.16274   1.17192   1.19147   1.19147   1.19706
  Beta virt. eigenvalues --    1.19706   1.27547   1.27547   1.29906   1.29906

 Mulliken charges and spin densities:
               1          2
     1  O   -0.404127   0.628065
     2  O   -0.595873   0.371935
     3  O   -0.595873   0.371935
     4  O   -0.404127   0.628065
 Sum of Mulliken charges =  -2.00000   2.00000

 Dipole moment (field-independent basis, Debye):
    X=             -0.0000    Y=              0.0000    Z=             -0.0000  Tot=              0.0000
 Quadrupole moment (field-independent basis, Debye-Ang):
   XX=            -24.9716   YY=            -24.9716   ZZ=            -97.4399
   XY=              0.0000   XZ=              0.0000   YZ=              0.0000

 Normal termination of Gaussian 16 at Sat Dec 31 22:41:59 2022.
