 Gaussian 16, Revision A.03,
 Gaussian 16:  ES64L-G16RevA.03 25-Dec-2016

 -------------------------------------
 #p CCSD(T)/cc-pVTZ Guess=Read SCF=XQC
 -------------------------------------

 ---------
 O2_O2_254
 ---------
 Symbolic Z-matrix:
 Charge = -2 Multiplicity = 3

                         Standard orientation:
 ---------------------------------------------------------------------
 Center     Atomic      Atomic             Coordinates (Angstroms)
 Number     Number       Type             X           Y           Z
 ---------------------------------------------------------------------
      1          8           0        0.000000    0.000000    2.590716
      2          8           0        0.000000    0.000000    3.943096
      3          8           0        0.000000    0.000000   -3.943096
      4          8           0        0.000000    0.000000   -2.590716
 ---------------------------------------------------------------------

 SCF Done:  E(UHF) =  -298.962001918     A.U. after   11 cycles
 E2 =    -0.1257212061D+01 EUMP2 =    -0.30021921397900D+03
 CCSD(T)
 CCSD(T)= -0.30013797179D+03

 The electronic state is 3-SGG.
 Alpha  occ. eigenvalues --  -20.23082 -20.23082 -20.21306 -20.21306  -1.08020
 Alpha  occ. eigenvalues --   -1.08020  -0.71655  -0.71654  -0.26551  -0.26551
 Alpha  occ. eigenvalues --   -0.26550  -0.26550  -0.20967  -0.20956  -0.05659
 Alpha  occ. eigenvalues --   -0.05659  -0.05658  -0.05658
 Alpha virt. eigenvalues --    0.70941   0.71233   1.11180   1.11616   1.12203
 Alpha virt. eigenvalues --    1.12203   1.12212   1.12212   1.16151   1.16565
 Alpha virt. eigenvalues --    1.20796   1.20796   1.20822   1.20822   1.34301

  Beta  occ. eigenvalues --  -20.19702 -20.19702 -20.18606 -20.18606  -0.99940
  Beta  occ. eigenvalues --   -0.99932  -0.60342  -0.60276  -0.18448  -0.18427
  Beta  occ. eigenvalues --   -0.12085  -0.12085  -0.11885  -0.11885   0.23438
  Beta  occ. eigenvalues --    0.23438
  Beta virt. eigenvalues --    0.31912   0.31912   0.74099   0.74443   1.13056
  Beta virt. eigenvalues --    1.13412   1.17014   1.17118   1.17118   1.17127
  Beta virt. eigenvalues --    1.17127   1.17501   1.26120   1.26120   1.26148

 Mulliken charges and spin densities:
               1          2
     1  O   -0.444249   0.572832
     2  O   -0.555751   0.427168
     3  O   -0.555751   0.427168
     4  O   -0.444249   0.572832
 Sum of Mulliken charges =  -2.00000   2.00000

 Dipole moment (field-independent basis, Debye):
    X=             -0.0000    Y=              0.0000    Z=              0.0000  Tot=              0.0000
 Quadrupole moment (field-independent basis, Debye-Ang):
   XX=            -24.9443   YY=            -24.9443   ZZ=           -138.2351
   XY=              0.0000   XZ=              0.0000   YZ=              0.0000

 Normal termination of Gaussian 16 at Sun Jan  1 00:54:56 2023.
