 Gaussian 16, Revision A.03,
 Gaussian 16:  ES64L-G16RevA.03 25-Dec-2016

 -------------------------------------
 #p CCSD(T)/cc-pVTZ Guess=Read SCF=XQC
 -------------------------------------

 ---------
 O2_O2_158
 ---------
 Symbolic Z-matrix:
 Charge = -2 Multiplicity = 3

                         Standard orientation:
 ---------------------------------------------------------------------
 Center     Atomic      Atomic             Coordinates (Angstroms)
 Number     Number       Type             X           Y           Z
 ---------------------------------------------------------------------
      1          8           0        0.000000    0.000000    1.911104
      2          8           0        0.000000    0.000000    3.263484
      3          8           0        0.000000    0.000000   -3.263484
      4          8           0        0.000000    0.000000   -1.911104
 ---------------------------------------------------------------------

 SCF Done:  E(UHF) =  -298.954482214     A.U. after   11 cycles
 E2 =    -0.1178745075D+01 EUMP2 =    -0.30013322728979D+03
 CCSD(T)
 CCSD(T)= -0.30011067755D+03

 The electronic state is 3-SGG.
 Alpha  occ. eigenvalues --  -20.21578 -20.21578 -20.18584 -20.18584  -1.05991
 Alpha  occ. eigenvalues --   -1.05982  -0.69507  -0.69445  -0.24554  -0.24554
 Alpha  occ. eigenvalues --   -0.24525  -0.24525  -0.18931  -0.18618  -0.03514
 Alpha  occ. eigenvalues --   -0.03514  -0.03457  -0.03457
 Alpha virt. eigenvalues --    0.70847   0.75569   1.08086   1.13965   1.13965
 Alpha virt. eigenvalues --    1.14513   1.14513   1.14872   1.16285   1.22239
 Alpha virt. eigenvalues --    1.22239   1.23730   1.23730   1.28940   1.36292

  Beta  occ. eigenvalues --  -20.17969 -20.17968 -20.16103 -20.16103  -0.97851
  Beta  occ. eigenvalues --   -0.97817  -0.58266  -0.58013  -0.16430  -0.16025
  Beta  occ. eigenvalues --   -0.10158  -0.10158  -0.09717  -0.09717   0.24259
  Beta  occ. eigenvalues --    0.24259
  Beta virt. eigenvalues --    0.35517   0.35517   0.73619   0.79139   1.10348
  Beta virt. eigenvalues --    1.16055   1.17034   1.18936   1.18936   1.19321
  Beta virt. eigenvalues --    1.19321   1.27546   1.27546   1.29148   1.29148

 Mulliken charges and spin densities:
               1          2
     1  O   -0.410620   0.618742
     2  O   -0.589380   0.381258
     3  O   -0.589380   0.381258
     4  O   -0.410620   0.618742
 Sum of Mulliken charges =  -2.00000   2.00000

 Dipole moment (field-independent basis, Debye):
    X=             -0.0000    Y=             -0.0000    Z=             -0.0000  Tot=              0.0000
 Quadrupole moment (field-independent basis, Debye-Ang):
   XX=            -24.9648   YY=            -24.9648   ZZ=           -101.3723
   XY=              0.0000   XZ=              0.0000   YZ=              0.0000

 Normal termination of Gaussian 16 at Sat Dec 31 22:56:33 2022.
