 Gaussian 16, Revision A.03,
 Gaussian 16:  ES64L-G16RevA.03 25-Dec-2016

 -------------------------------------
 #p CCSD(T)/cc-pVTZ Guess=Read SCF=XQC
 -------------------------------------

 --------
 O2_O2_23
 --------
 Symbolic Z-matrix:
 Charge = -2 Multiplicity = 3

                         Standard orientation:
 ---------------------------------------------------------------------
 Center     Atomic      Atomic             Coordinates (Angstroms)
 Number     Number       Type             X           Y           Z
 ---------------------------------------------------------------------
      1          8           0        0.000000    0.000000    0.955399
      2          8           0        0.000000    0.000000    2.307779
      3          8           0        0.000000    0.000000   -2.307779
      4          8           0        0.000000    0.000000   -0.955399
 ---------------------------------------------------------------------

 SCF Done:  E(UHF) =  -298.961483361     A.U. after   12 cycles
 E2 =    -0.1032248069D+01 EUMP2 =    -0.29999373142945D+03
 CCSD(T)
 CCSD(T)= -0.30003238178D+03

 The electronic state is 3-SGG.
 Alpha  occ. eigenvalues --  -20.19826 -20.19825 -20.09819 -20.09819  -1.03270
 Alpha  occ. eigenvalues --   -1.01037  -0.67458  -0.61149  -0.22435  -0.22435
 Alpha  occ. eigenvalues --   -0.19460  -0.19460  -0.19113  -0.06817   0.01333
 Alpha  occ. eigenvalues --    0.01333   0.03566   0.03566
 Alpha virt. eigenvalues --    0.77943   0.86006   1.15321   1.15321   1.16778
 Alpha virt. eigenvalues --    1.18334   1.21386   1.21386   1.25530   1.25530
 Alpha virt. eigenvalues --    1.38575   1.38823   1.40340   1.40340   1.46268

  Beta  occ. eigenvalues --  -20.14918 -20.14909 -20.08373 -20.08373  -0.93768
  Beta  occ. eigenvalues --   -0.91935  -0.58383  -0.48791  -0.16612  -0.06880
  Beta  occ. eigenvalues --   -0.06880  -0.03717  -0.03717  -0.03207   0.22071
  Beta  occ. eigenvalues --    0.22071
  Beta virt. eigenvalues --    0.49923   0.49923   0.81895   0.89877   1.18337
  Beta virt. eigenvalues --    1.18571   1.22539   1.22539   1.24895   1.24895
  Beta virt. eigenvalues --    1.29838   1.29838   1.39047   1.39729   1.46539

 Mulliken charges and spin densities:
               1          2
     1  O   -0.244683   0.822819
     2  O   -0.755317   0.177181
     3  O   -0.755317   0.177181
     4  O   -0.244683   0.822819
 Sum of Mulliken charges =  -2.00000   2.00000

 Dipole moment (field-independent basis, Debye):
    X=             -0.0000    Y=             -0.0000    Z=              0.0000  Tot=              0.0000
 Quadrupole moment (field-independent basis, Debye-Ang):
   XX=            -25.1129   YY=            -25.1129   ZZ=            -66.9360
   XY=              0.0000   XZ=              0.0000   YZ=              0.0000

 46117\PMP3-0=-299.9605545\MP4SDQ=-299.973599\CCSD=-299.967718\CCSD(T)=
 Normal termination of Gaussian 16 at Sat Dec 31 20:12:18 2022.
