 Gaussian 16, Revision A.03,
 Gaussian 16:  ES64L-G16RevA.03 25-Dec-2016

 -------------------------------------
 #p CCSD(T)/cc-pVTZ Guess=Read SCF=XQC
 -------------------------------------

 ---------
 O2_O2_239
 ---------
 Symbolic Z-matrix:
 Charge = -2 Multiplicity = 3

                         Standard orientation:
 ---------------------------------------------------------------------
 Center     Atomic      Atomic             Coordinates (Angstroms)
 Number     Number       Type             X           Y           Z
 ---------------------------------------------------------------------
      1          8           0        0.000000    0.000000    2.484526
      2          8           0        0.000000    0.000000    3.836906
      3          8           0        0.000000    0.000000   -3.836906
      4          8           0        0.000000    0.000000   -2.484526
 ---------------------------------------------------------------------

 SCF Done:  E(UHF) =  -298.960782584     A.U. after   11 cycles
 E2 =    -0.1245564251D+01 EUMP2 =    -0.30020634683566D+03
 CCSD(T)
 CCSD(T)= -0.30013444440D+03

 The electronic state is 3-SGG.
 Alpha  occ. eigenvalues --  -20.22865 -20.22865 -20.20965 -20.20965  -1.07749
 Alpha  occ. eigenvalues --   -1.07749  -0.71372  -0.71369  -0.26282  -0.26282
 Alpha  occ. eigenvalues --   -0.26281  -0.26281  -0.20687  -0.20667  -0.05377
 Alpha  occ. eigenvalues --   -0.05377  -0.05374  -0.05374
 Alpha virt. eigenvalues --    0.71122   0.71647   1.11283   1.12067   1.12467
 Alpha virt. eigenvalues --    1.12467   1.12486   1.12486   1.16299   1.17110
 Alpha virt. eigenvalues --    1.21060   1.21060   1.21115   1.21115   1.34567

  Beta  occ. eigenvalues --  -20.19462 -20.19462 -20.18288 -20.18288  -0.99666
  Beta  occ. eigenvalues --   -0.99657  -0.60066  -0.59989  -0.18169  -0.18135
  Beta  occ. eigenvalues --   -0.11827  -0.11827  -0.11605  -0.11605   0.23561
  Beta  occ. eigenvalues --    0.23561
  Beta virt. eigenvalues --    0.32356   0.32356   0.74263   0.74878   1.13184
  Beta virt. eigenvalues --    1.13805   1.17144   1.17379   1.17379   1.17396
  Beta virt. eigenvalues --    1.17396   1.18087   1.26387   1.26387   1.26445

 Mulliken charges and spin densities:
               1          2
     1  O   -0.440432   0.577818
     2  O   -0.559568   0.422182
     3  O   -0.559568   0.422182
     4  O   -0.440432   0.577818
 Sum of Mulliken charges =  -2.00000   2.00000

 Dipole moment (field-independent basis, Debye):
    X=             -0.0000    Y=              0.0000    Z=              0.0000  Tot=              0.0000
 Quadrupole moment (field-independent basis, Debye-Ang):
   XX=            -24.9456   YY=            -24.9456   ZZ=           -131.8544
   XY=              0.0000   XZ=              0.0000   YZ=              0.0000

 Normal termination of Gaussian 16 at Sun Jan  1 00:36:22 2023.
