 Gaussian 16, Revision A.03,
 Gaussian 16:  ES64L-G16RevA.03 25-Dec-2016

 -------------------------------------
 #p CCSD(T)/cc-pVTZ Guess=Read SCF=XQC
 -------------------------------------

 ---------
 O2_O2_113
 ---------
 Symbolic Z-matrix:
 Charge = -2 Multiplicity = 3

                         Standard orientation:
 ---------------------------------------------------------------------
 Center     Atomic      Atomic             Coordinates (Angstroms)
 Number     Number       Type             X           Y           Z
 ---------------------------------------------------------------------
      1          8           0        0.000000    0.000000    1.592536
      2          8           0        0.000000    0.000000    2.944916
      3          8           0        0.000000    0.000000   -2.944916
      4          8           0        0.000000    0.000000   -1.592536
 ---------------------------------------------------------------------

 SCF Done:  E(UHF) =  -298.954126300     A.U. after   11 cycles
 E2 =    -0.1135060849D+01 EUMP2 =    -0.30008918714914D+03
 CCSD(T)
 CCSD(T)= -0.30009298332D+03

 The electronic state is 3-SGG.
 Alpha  occ. eigenvalues --  -20.20961 -20.20961 -20.16663 -20.16663  -1.04841
 Alpha  occ. eigenvalues --   -1.04787  -0.68254  -0.67960  -0.23468  -0.23468
 Alpha  occ. eigenvalues --   -0.23333  -0.23333  -0.17939  -0.16857  -0.02219
 Alpha  occ. eigenvalues --   -0.02219  -0.01994  -0.01994
 Alpha virt. eigenvalues --    0.71688   0.78446   1.08261   1.14205   1.14205
 Alpha virt. eigenvalues --    1.15558   1.16343   1.16343   1.17143   1.22142
 Alpha virt. eigenvalues --    1.22142   1.27331   1.27331   1.37300   1.37629

  Beta  occ. eigenvalues --  -20.17095 -20.17093 -20.14387 -20.14387  -0.96563
  Beta  occ. eigenvalues --   -0.96460  -0.57099  -0.56391  -0.15483  -0.14138
  Beta  occ. eigenvalues --   -0.09034  -0.09034  -0.08294  -0.08294   0.24497
  Beta  occ. eigenvalues --    0.24497
  Beta virt. eigenvalues --    0.38272   0.38272   0.74458   0.82227   1.10485
  Beta virt. eigenvalues --    1.16655   1.17946   1.19573   1.19573   1.20909
  Beta virt. eigenvalues --    1.20909   1.27193   1.27193   1.32978   1.32978

 Mulliken charges and spin densities:
               1          2
     1  O   -0.381462   0.661024
     2  O   -0.618538   0.338976
     3  O   -0.618538   0.338976
     4  O   -0.381462   0.661024
 Sum of Mulliken charges =  -2.00000   2.00000

 Dipole moment (field-independent basis, Debye):
    X=             -0.0000    Y=             -0.0000    Z=              0.0000  Tot=              0.0000
 Quadrupole moment (field-independent basis, Debye-Ang):
   XX=            -25.0008   YY=            -25.0008   ZZ=            -87.4348
   XY=              0.0000   XZ=              0.0000   YZ=              0.0000

 Normal termination of Gaussian 16 at Sat Dec 31 22:00:06 2022.
