 Gaussian 16, Revision A.03,
 Gaussian 16:  ES64L-G16RevA.03 25-Dec-2016

 -------------------------------------
 #p CCSD(T)/cc-pVTZ Guess=Read SCF=XQC
 -------------------------------------

 ---------
 O2_O2_138
 ---------
 Symbolic Z-matrix:
 Charge = -2 Multiplicity = 3

                         Standard orientation:
 ---------------------------------------------------------------------
 Center     Atomic      Atomic             Coordinates (Angstroms)
 Number     Number       Type             X           Y           Z
 ---------------------------------------------------------------------
      1          8           0        0.000000    0.000000    1.769518
      2          8           0        0.000000    0.000000    3.121898
      3          8           0        0.000000    0.000000   -3.121898
      4          8           0        0.000000    0.000000   -1.769518
 ---------------------------------------------------------------------

 SCF Done:  E(UHF) =  -298.953734508     A.U. after   11 cycles
 E2 =    -0.1160225748D+01 EUMP2 =    -0.30011396025591D+03
 CCSD(T)
 CCSD(T)= -0.30010328025D+03

 The electronic state is 3-SGG.
 Alpha  occ. eigenvalues --  -20.21279 -20.21279 -20.17803 -20.17803  -1.05489
 Alpha  occ. eigenvalues --   -1.05469  -0.68963  -0.68839  -0.24072  -0.24072
 Alpha  occ. eigenvalues --   -0.24015  -0.24015  -0.18469  -0.17920  -0.02963
 Alpha  occ. eigenvalues --   -0.02963  -0.02855  -0.02855
 Alpha virt. eigenvalues --    0.70841   0.76850   1.07133   1.14200   1.14200
 Alpha virt. eigenvalues --    1.15252   1.15252   1.15271   1.16560   1.22260
 Alpha virt. eigenvalues --    1.22260   1.25013   1.25013   1.36033   1.36897

  Beta  occ. eigenvalues --  -20.17576 -20.17575 -20.15400 -20.15400  -0.97305
  Beta  occ. eigenvalues --   -0.97251  -0.57750  -0.57362  -0.15982  -0.15285
  Beta  occ. eigenvalues --   -0.09674  -0.09674  -0.09127  -0.09127   0.24399
  Beta  occ. eigenvalues --    0.24399
  Beta virt. eigenvalues --    0.36608   0.36608   0.73534   0.80527   1.09440
  Beta virt. eigenvalues --    1.16397   1.17333   1.19275   1.19275   1.19979
  Beta virt. eigenvalues --    1.19979   1.27505   1.27505   1.30506   1.30506

 Mulliken charges and spin densities:
               1          2
     1  O   -0.399341   0.634987
     2  O   -0.600659   0.365013
     3  O   -0.600659   0.365013
     4  O   -0.399341   0.634987
 Sum of Mulliken charges =  -2.00000   2.00000

 Dipole moment (field-independent basis, Debye):
    X=             -0.0000    Y=             -0.0000    Z=              0.0000  Tot=              0.0000
 Quadrupole moment (field-independent basis, Debye-Ang):
   XX=            -24.9772   YY=            -24.9772   ZZ=            -94.9050
   XY=              0.0000   XZ=              0.0000   YZ=              0.0000

 Normal termination of Gaussian 16 at Sat Dec 31 22:31:43 2022.
