 Gaussian 16, Revision A.03,
 Gaussian 16:  ES64L-G16RevA.03 25-Dec-2016

 -------------------------------------
 #p CCSD(T)/cc-pVTZ Guess=Read SCF=XQC
 -------------------------------------

 ---------
 O2_O2_180
 ---------
 Symbolic Z-matrix:
 Charge = -2 Multiplicity = 3

                         Standard orientation:
 ---------------------------------------------------------------------
 Center     Atomic      Atomic             Coordinates (Angstroms)
 Number     Number       Type             X           Y           Z
 ---------------------------------------------------------------------
      1          8           0        0.000000    0.000000    2.066848
      2          8           0        0.000000    0.000000    3.419228
      3          8           0        0.000000    0.000000   -3.419228
      4          8           0        0.000000    0.000000   -2.066848
 ---------------------------------------------------------------------

 SCF Done:  E(UHF) =  -298.955915457     A.U. after   11 cycles
 E2 =    -0.1197897370D+01 EUMP2 =    -0.30015381282672D+03
 CCSD(T)
 CCSD(T)= -0.30011803531D+03

 The electronic state is 3-SGG.
 Alpha  occ. eigenvalues --  -20.21931 -20.21931 -20.19339 -20.19339  -1.06516
 Alpha  occ. eigenvalues --   -1.06513  -0.70071  -0.70042  -0.25065  -0.25065
 Alpha  occ. eigenvalues --   -0.25053  -0.25053  -0.19439  -0.19277  -0.04078
 Alpha  occ. eigenvalues --   -0.04078  -0.04051  -0.04051
 Alpha virt. eigenvalues --    0.71121   0.74231   1.09702   1.13588   1.13588
 Alpha virt. eigenvalues --    1.13834   1.13834   1.14254   1.16211   1.22042
 Alpha virt. eigenvalues --    1.22042   1.22729   1.22729   1.23260   1.35775

  Beta  occ. eigenvalues --  -20.18399 -20.18398 -20.16790 -20.16789  -0.98404
  Beta  occ. eigenvalues --   -0.98382  -0.58807  -0.58638  -0.16929  -0.16714
  Beta  occ. eigenvalues --   -0.10659  -0.10659  -0.10302  -0.10302   0.24076
  Beta  occ. eigenvalues --    0.24076
  Beta virt. eigenvalues --    0.34494   0.34494   0.74033   0.77677   1.11873
  Beta virt. eigenvalues --    1.15554   1.16937   1.18512   1.18512   1.18694
  Beta virt. eigenvalues --    1.18694   1.24521   1.27370   1.27370   1.28101

 Mulliken charges and spin densities:
               1          2
     1  O   -0.420757   0.604406
     2  O   -0.579243   0.395594
     3  O   -0.579243   0.395594
     4  O   -0.420757   0.604406
 Sum of Mulliken charges =  -2.00000   2.00000

 Dipole moment (field-independent basis, Debye):
    X=             -0.0000    Y=              0.0000    Z=             -0.0000  Tot=              0.0000
 Quadrupole moment (field-independent basis, Debye-Ang):
   XX=            -24.9561   YY=            -24.9561   ZZ=           -108.9802
   XY=              0.0000   XZ=              0.0000   YZ=              0.0000

 Normal termination of Gaussian 16 at Sat Dec 31 23:23:16 2022.
