 Gaussian 16, Revision A.03,
 Gaussian 16:  ES64L-G16RevA.03 25-Dec-2016

 -------------------------------------
 #p CCSD(T)/cc-pVTZ Guess=Read SCF=XQC
 -------------------------------------

 --------
 O2_O2_32
 --------
 Symbolic Z-matrix:
 Charge = -2 Multiplicity = 3

                         Standard orientation:
 ---------------------------------------------------------------------
 Center     Atomic      Atomic             Coordinates (Angstroms)
 Number     Number       Type             X           Y           Z
 ---------------------------------------------------------------------
      1          8           0        0.000000    0.000000    1.019113
      2          8           0        0.000000    0.000000    2.371493
      3          8           0        0.000000    0.000000   -2.371493
      4          8           0        0.000000    0.000000   -1.019113
 ---------------------------------------------------------------------

 SCF Done:  E(UHF) =  -298.965959887     A.U. after   12 cycles
 E2 =    -0.1040828445D+01 EUMP2 =    -0.30000678833127D+03
 CCSD(T)
 CCSD(T)= -0.30004453183D+03

 The electronic state is 3-SGG.
 Alpha  occ. eigenvalues --  -20.20062 -20.20061 -20.10829 -20.10829  -1.03177
 Alpha  occ. eigenvalues --   -1.01667  -0.67037  -0.62401  -0.22271  -0.22271
 Alpha  occ. eigenvalues --   -0.20120  -0.20120  -0.18488  -0.08901   0.00885
 Alpha  occ. eigenvalues --    0.00885   0.02669   0.02669
 Alpha virt. eigenvalues --    0.77419   0.84815   1.14626   1.14626   1.16510
 Alpha virt. eigenvalues --    1.18293   1.20773   1.20773   1.24689   1.24689
 Alpha virt. eigenvalues --    1.37821   1.38790   1.39129   1.39129   1.42620

  Beta  occ. eigenvalues --  -20.15262 -20.15255 -20.09279 -20.09279  -0.93923
  Beta  occ. eigenvalues --   -0.92610  -0.57390  -0.50133  -0.16112  -0.06995
  Beta  occ. eigenvalues --   -0.06995  -0.05464  -0.04376  -0.04376   0.22738
  Beta  occ. eigenvalues --    0.22738
  Beta virt. eigenvalues --    0.48132   0.48132   0.81274   0.88718   1.17893
  Beta virt. eigenvalues --    1.18605   1.21823   1.21823   1.24405   1.24405
  Beta virt. eigenvalues --    1.28877   1.28877   1.39067   1.39357   1.43197

 Mulliken charges and spin densities:
               1          2
     1  O   -0.266773   0.803970
     2  O   -0.733227   0.196030
     3  O   -0.733227   0.196030
     4  O   -0.266773   0.803970
 Sum of Mulliken charges =  -2.00000   2.00000

 Dipole moment (field-independent basis, Debye):
    X=             -0.0000    Y=              0.0000    Z=             -0.0000  Tot=              0.0000
 Quadrupole moment (field-independent basis, Debye-Ang):
   XX=            -25.1195   YY=            -25.1195   ZZ=            -68.3754
   XY=              0.0000   XZ=              0.0000   YZ=              0.0000

 Normal termination of Gaussian 16 at Sat Dec 31 20:22:56 2022.
