 Gaussian 16, Revision A.03,
 Gaussian 16:  ES64L-G16RevA.03 25-Dec-2016

 -------------------------------------
 #p CCSD(T)/cc-pVTZ Guess=Read SCF=XQC
 -------------------------------------

 ---------
 O2_O2_212
 ---------
 Symbolic Z-matrix:
 Charge = -2 Multiplicity = 3

                         Standard orientation:
 ---------------------------------------------------------------------
 Center     Atomic      Atomic             Coordinates (Angstroms)
 Number     Number       Type             X           Y           Z
 ---------------------------------------------------------------------
      1          8           0        0.000000    0.000000    2.293385
      2          8           0        0.000000    0.000000    3.645765
      3          8           0        0.000000    0.000000   -3.645765
      4          8           0        0.000000    0.000000   -2.293385
 ---------------------------------------------------------------------

 SCF Done:  E(UHF) =  -298.958511067     A.U. after   11 cycles
 E2 =    -0.1224222835D+01 EUMP2 =    -0.30018273390190D+03
 CCSD(T)
 CCSD(T)= -0.30012747645D+03

 The electronic state is 3-SGG.
 Alpha  occ. eigenvalues --  -20.22450 -20.22450 -20.20283 -20.20283  -1.07218
 Alpha  occ. eigenvalues --   -1.07218  -0.70814  -0.70806  -0.25756  -0.25756
 Alpha  occ. eigenvalues --   -0.25753  -0.25753  -0.20143  -0.20087  -0.04821
 Alpha  occ. eigenvalues --   -0.04821  -0.04813  -0.04813
 Alpha virt. eigenvalues --    0.71300   0.72621   1.11108   1.12973   1.12973
 Alpha virt. eigenvalues --    1.13039   1.13039   1.13063   1.16354   1.18779
 Alpha virt. eigenvalues --    1.21544   1.21544   1.21732   1.21732   1.35089

  Beta  occ. eigenvalues --  -20.18997 -20.18997 -20.17656 -20.17656  -0.99127
  Beta  occ. eigenvalues --   -0.99114  -0.59525  -0.59421  -0.17627  -0.17546
  Beta  occ. eigenvalues --   -0.11323  -0.11323  -0.11052  -0.11052   0.23793
  Beta  occ. eigenvalues --    0.23793
  Beta virt. eigenvalues --    0.33246   0.33246   0.74373   0.75922   1.13111
  Beta virt. eigenvalues --    1.14623   1.17135   1.17882   1.17882   1.17934
  Beta virt. eigenvalues --    1.17934   1.19883   1.26875   1.26875   1.27073

 Mulliken charges and spin densities:
               1          2
     1  O   -0.432492   0.588336
     2  O   -0.567508   0.411664
     3  O   -0.567508   0.411664
     4  O   -0.432492   0.588336
 Sum of Mulliken charges =  -2.00000   2.00000

 Dipole moment (field-independent basis, Debye):
    X=             -0.0000    Y=              0.0000    Z=             -0.0000  Tot=              0.0000
 Quadrupole moment (field-independent basis, Debye-Ang):
   XX=            -24.9489   YY=            -24.9489   ZZ=           -120.9447
   XY=              0.0000   XZ=              0.0000   YZ=              0.0000

 Normal termination of Gaussian 16 at Sun Jan  1 00:03:25 2023.
