 Gaussian 16, Revision A.03,
 Gaussian 16:  ES64L-G16RevA.03 25-Dec-2016

 -------------------------------------
 #p CCSD(T)/cc-pVTZ Guess=Read SCF=XQC
 -------------------------------------

 --------
 O2_O2_26
 --------
 Symbolic Z-matrix:
 Charge = -2 Multiplicity = 3

                         Standard orientation:
 ---------------------------------------------------------------------
 Center     Atomic      Atomic             Coordinates (Angstroms)
 Number     Number       Type             X           Y           Z
 ---------------------------------------------------------------------
      1          8           0        0.000000    0.000000    0.976637
      2          8           0        0.000000    0.000000    2.329017
      3          8           0        0.000000    0.000000   -2.329017
      4          8           0        0.000000    0.000000   -0.976637
 ---------------------------------------------------------------------

 SCF Done:  E(UHF) =  -298.963555624     A.U. after   12 cycles
 E2 =    -0.1034924832D+01 EUMP2 =    -0.29999848045660D+03
 CCSD(T)
 CCSD(T)= -0.30003693127D+03

 The electronic state is 3-SGG.
 Alpha  occ. eigenvalues --  -20.19910 -20.19909 -20.10169 -20.10169  -1.03217
 Alpha  occ. eigenvalues --   -1.01260  -0.67285  -0.61591  -0.22361  -0.22361
 Alpha  occ. eigenvalues --   -0.19693  -0.19693  -0.18884  -0.07568   0.01181
 Alpha  occ. eigenvalues --    0.01181   0.03253   0.03253
 Alpha virt. eigenvalues --    0.77775   0.85584   1.15078   1.15078   1.16682
 Alpha virt. eigenvalues --    1.18324   1.21176   1.21176   1.25232   1.25232
 Alpha virt. eigenvalues --    1.38458   1.38818   1.39946   1.39946   1.45008

  Beta  occ. eigenvalues --  -20.15037 -20.15029 -20.08689 -20.08689  -0.93806
  Beta  occ. eigenvalues --   -0.92169  -0.58001  -0.49262  -0.16434  -0.06909
  Beta  occ. eigenvalues --   -0.06909  -0.04020  -0.03946  -0.03946   0.22312
  Beta  occ. eigenvalues --    0.22312
  Beta virt. eigenvalues --    0.49305   0.49305   0.81696   0.89468   1.18173
  Beta virt. eigenvalues --    1.18589   1.22301   1.22301   1.24726   1.24726
  Beta virt. eigenvalues --    1.29494   1.29494   1.39062   1.39691   1.45639

 Mulliken charges and spin densities:
               1          2
     1  O   -0.252379   0.816650
     2  O   -0.747621   0.183350
     3  O   -0.747621   0.183350
     4  O   -0.252379   0.816650
 Sum of Mulliken charges =  -2.00000   2.00000

 Dipole moment (field-independent basis, Debye):
    X=             -0.0000    Y=              0.0000    Z=             -0.0000  Tot=              0.0000
 Quadrupole moment (field-independent basis, Debye-Ang):
   XX=            -25.1167   YY=            -25.1167   ZZ=            -67.3924
   XY=              0.0000   XZ=              0.0000   YZ=              0.0000

 Normal termination of Gaussian 16 at Sat Dec 31 20:15:53 2022.
