 Gaussian 16, Revision A.03,
 Gaussian 16:  ES64L-G16RevA.03 25-Dec-2016

 -------------------------------------
 #p CCSD(T)/cc-pVTZ Guess=Read SCF=XQC
 -------------------------------------

 ---------
 O2_O2_230
 ---------
 Symbolic Z-matrix:
 Charge = -2 Multiplicity = 3

                         Standard orientation:
 ---------------------------------------------------------------------
 Center     Atomic      Atomic             Coordinates (Angstroms)
 Number     Number       Type             X           Y           Z
 ---------------------------------------------------------------------
      1          8           0        0.000000    0.000000    2.420813
      2          8           0        0.000000    0.000000    3.773193
      3          8           0        0.000000    0.000000   -3.773193
      4          8           0        0.000000    0.000000   -2.420813
 ---------------------------------------------------------------------

 SCF Done:  E(UHF) =  -298.960032511     A.U. after   11 cycles
 E2 =    -0.1238513020D+01 EUMP2 =    -0.30019854553082D+03
 CCSD(T)
 CCSD(T)= -0.30013221445D+03

 The electronic state is 3-SGG.
 Alpha  occ. eigenvalues --  -20.22730 -20.22730 -20.20748 -20.20748  -1.07578
 Alpha  occ. eigenvalues --   -1.07578  -0.71193  -0.71189  -0.26113  -0.26113
 Alpha  occ. eigenvalues --   -0.26111  -0.26111  -0.20511  -0.20483  -0.05198
 Alpha  occ. eigenvalues --   -0.05198  -0.05195  -0.05195
 Alpha virt. eigenvalues --    0.71208   0.71935   1.11292   1.12376   1.12632
 Alpha virt. eigenvalues --    1.12632   1.12661   1.12661   1.16350   1.17540
 Alpha virt. eigenvalues --    1.21222   1.21222   1.21305   1.21305   1.34735

  Beta  occ. eigenvalues --  -20.19312 -20.19311 -20.18087 -20.18086  -0.99493
  Beta  occ. eigenvalues --   -0.99483  -0.59893  -0.59808  -0.17993  -0.17949
  Beta  occ. eigenvalues --   -0.11665  -0.11665  -0.11428  -0.11428   0.23637
  Beta  occ. eigenvalues --    0.23637
  Beta virt. eigenvalues --    0.32638   0.32638   0.74331   0.75185   1.13218
  Beta virt. eigenvalues --    1.14066   1.17178   1.17542   1.17542   1.17567
  Beta virt. eigenvalues --    1.17567   1.18551   1.26550   1.26550   1.26638

 Mulliken charges and spin densities:
               1          2
     1  O   -0.437950   0.581081
     2  O   -0.562050   0.418919
     3  O   -0.562050   0.418919
     4  O   -0.437950   0.581081
 Sum of Mulliken charges =  -2.00000   2.00000

 Dipole moment (field-independent basis, Debye):
    X=             -0.0000    Y=              0.0000    Z=             -0.0000  Tot=              0.0000
 Quadrupole moment (field-independent basis, Debye-Ang):
   XX=            -24.9465   YY=            -24.9465   ZZ=           -128.1355
   XY=              0.0000   XZ=              0.0000   YZ=              0.0000

 Normal termination of Gaussian 16 at Sun Jan  1 00:25:38 2023.
