 Gaussian 16, Revision A.03,
 Gaussian 16:  ES64L-G16RevA.03 25-Dec-2016

 -------------------------------------
 #p CCSD(T)/cc-pVTZ Guess=Read SCF=XQC
 -------------------------------------

 ---------
 O2_O2_142
 ---------
 Symbolic Z-matrix:
 Charge = -2 Multiplicity = 3

                         Standard orientation:
 ---------------------------------------------------------------------
 Center     Atomic      Atomic             Coordinates (Angstroms)
 Number     Number       Type             X           Y           Z
 ---------------------------------------------------------------------
      1          8           0        0.000000    0.000000    1.797835
      2          8           0        0.000000    0.000000    3.150215
      3          8           0        0.000000    0.000000   -3.150215
      4          8           0        0.000000    0.000000   -1.797835
 ---------------------------------------------------------------------

 SCF Done:  E(UHF) =  -298.953825356     A.U. after   11 cycles
 E2 =    -0.1164031223D+01 EUMP2 =    -0.30011785657853D+03
 CCSD(T)
 CCSD(T)= -0.30010481768D+03

 The electronic state is 3-SGG.
 Alpha  occ. eigenvalues --  -20.21336 -20.21336 -20.17968 -20.17968  -1.05591
 Alpha  occ. eigenvalues --   -1.05574  -0.69074  -0.68966  -0.24169  -0.24169
 Alpha  occ. eigenvalues --   -0.24119  -0.24119  -0.18561  -0.18069  -0.03076
 Alpha  occ. eigenvalues --   -0.03076  -0.02980  -0.02980
 Alpha virt. eigenvalues --    0.70803   0.76593   1.07229   1.14165   1.14165
 Alpha virt. eigenvalues --    1.15094   1.15094   1.15203   1.16490   1.22268
 Alpha virt. eigenvalues --    1.22268   1.24721   1.24721   1.34621   1.36768

  Beta  occ. eigenvalues --  -20.17654 -20.17653 -20.15548 -20.15547  -0.97418
  Beta  occ. eigenvalues --   -0.97369  -0.57854  -0.57500  -0.16070  -0.15444
  Beta  occ. eigenvalues --   -0.09773  -0.09773  -0.09250  -0.09250   0.24374
  Beta  occ. eigenvalues --    0.24374
  Beta virt. eigenvalues --    0.36375   0.36375   0.73504   0.80250   1.09532
  Beta virt. eigenvalues --    1.16337   1.17259   1.19213   1.19213   1.19841
  Beta virt. eigenvalues --    1.19841   1.27530   1.27530   1.30196   1.30196

 Mulliken charges and spin densities:
               1          2
     1  O   -0.401783   0.631451
     2  O   -0.598217   0.368549
     3  O   -0.598217   0.368549
     4  O   -0.401783   0.631451
 Sum of Mulliken charges =  -2.00000   2.00000

 Dipole moment (field-independent basis, Debye):
    X=             -0.0000    Y=             -0.0000    Z=             -0.0000  Tot=              0.0000
 Quadrupole moment (field-independent basis, Debye-Ang):
   XX=            -24.9743   YY=            -24.9743   ZZ=            -96.1637
   XY=              0.0000   XZ=              0.0000   YZ=              0.0000

 Normal termination of Gaussian 16 at Sat Dec 31 22:36:55 2022.
