 Gaussian 16, Revision A.03,
 Gaussian 16:  ES64L-G16RevA.03 25-Dec-2016

 -------------------------------------
 #p CCSD(T)/cc-pVTZ Guess=Read SCF=XQC
 -------------------------------------

 ---------
 O2_O2_259
 ---------
 Symbolic Z-matrix:
 Charge = -2 Multiplicity = 3

                         Standard orientation:
 ---------------------------------------------------------------------
 Center     Atomic      Atomic             Coordinates (Angstroms)
 Number     Number       Type             X           Y           Z
 ---------------------------------------------------------------------
      1          8           0        0.000000    0.000000    2.626112
      2          8           0        0.000000    0.000000    3.978492
      3          8           0        0.000000    0.000000   -3.978492
      4          8           0        0.000000    0.000000   -2.626112
 ---------------------------------------------------------------------

 SCF Done:  E(UHF) =  -298.962398113     A.U. after   11 cycles
 E2 =    -0.1261070862D+01 EUMP2 =    -0.30022346897451D+03
 CCSD(T)
 CCSD(T)= -0.30013909792D+03

 The electronic state is 3-SGG.
 Alpha  occ. eigenvalues --  -20.23152 -20.23152 -20.21415 -20.21415  -1.08107
 Alpha  occ. eigenvalues --   -1.08107  -0.71745  -0.71744  -0.26637  -0.26637
 Alpha  occ. eigenvalues --   -0.26637  -0.26637  -0.21057  -0.21048  -0.05750
 Alpha  occ. eigenvalues --   -0.05750  -0.05749  -0.05749
 Alpha virt. eigenvalues --    0.70873   0.71110   1.11129   1.11483   1.12118
 Alpha virt. eigenvalues --    1.12118   1.12125   1.12125   1.16089   1.16417
 Alpha virt. eigenvalues --    1.20710   1.20710   1.20730   1.20730   1.34215

  Beta  occ. eigenvalues --  -20.19779 -20.19779 -20.18707 -20.18707  -1.00027
  Beta  occ. eigenvalues --   -1.00021  -0.60431  -0.60367  -0.18538  -0.18520
  Beta  occ. eigenvalues --   -0.12167  -0.12167  -0.11974  -0.11974   0.23399
  Beta  occ. eigenvalues --    0.23399
  Beta virt. eigenvalues --    0.31771   0.31771   0.74035   0.74315   1.13000
  Beta virt. eigenvalues --    1.13292   1.16955   1.17034   1.17034   1.17041
  Beta virt. eigenvalues --    1.17041   1.17343   1.26033   1.26033   1.26055

 Mulliken charges and spin densities:
               1          2
     1  O   -0.445440   0.571281
     2  O   -0.554560   0.428719
     3  O   -0.554560   0.428719
     4  O   -0.445440   0.571281
 Sum of Mulliken charges =  -2.00000   2.00000

 Dipole moment (field-independent basis, Debye):
    X=             -0.0000    Y=              0.0000    Z=              0.0000  Tot=              0.0000
 Quadrupole moment (field-independent basis, Debye-Ang):
   XX=            -24.9439   YY=            -24.9439   ZZ=           -140.4126
   XY=              0.0000   XZ=              0.0000   YZ=              0.0000

 Normal termination of Gaussian 16 at Sun Jan  1 01:01:07 2023.
