 Gaussian 16, Revision A.03,
 Gaussian 16:  ES64L-G16RevA.03 25-Dec-2016

 -------------------------------------
 #p CCSD(T)/cc-pVTZ Guess=Read SCF=XQC
 -------------------------------------

 ---------
 O2_O2_276
 ---------
 Symbolic Z-matrix:
 Charge = -2 Multiplicity = 3

                         Standard orientation:
 ---------------------------------------------------------------------
 Center     Atomic      Atomic             Coordinates (Angstroms)
 Number     Number       Type             X           Y           Z
 ---------------------------------------------------------------------
      1          8           0        0.000000    0.000000    2.746460
      2          8           0        0.000000    0.000000    4.098840
      3          8           0        0.000000    0.000000   -4.098840
      4          8           0        0.000000    0.000000   -2.746460
 ---------------------------------------------------------------------

 SCF Done:  E(UHF) =  -298.963702528     A.U. after   11 cycles
 E2 =    -0.1274120518D+01 EUMP2 =    -0.30023782304670D+03
 CCSD(T)
 CCSD(T)= -0.30014275438D+03

 The electronic state is 3-SGG.
 Alpha  occ. eigenvalues --  -20.23381 -20.23381 -20.21766 -20.21766  -1.08390
 Alpha  occ. eigenvalues --   -1.08390  -0.72039  -0.72039  -0.26918  -0.26918
 Alpha  occ. eigenvalues --   -0.26918  -0.26918  -0.21349  -0.21345  -0.06043
 Alpha  occ. eigenvalues --   -0.06043  -0.06042  -0.06042
 Alpha virt. eigenvalues --    0.70625   0.70739   1.10918   1.11087   1.11840
 Alpha virt. eigenvalues --    1.11840   1.11843   1.11843   1.15848   1.15990
 Alpha virt. eigenvalues --    1.20427   1.20427   1.20435   1.20435   1.33938

  Beta  occ. eigenvalues --  -20.20031 -20.20030 -20.19034 -20.19034  -1.00312
  Beta  occ. eigenvalues --   -1.00307  -0.60718  -0.60662  -0.18831  -0.18820
  Beta  occ. eigenvalues --   -0.12437  -0.12437  -0.12265  -0.12265   0.23269
  Beta  occ. eigenvalues --    0.23269
  Beta virt. eigenvalues --    0.31315   0.31315   0.73797   0.73931   1.12783
  Beta virt. eigenvalues --    1.12929   1.16720   1.16759   1.16759   1.16763
  Beta virt. eigenvalues --    1.16763   1.16893   1.25748   1.25748   1.25757

 Mulliken charges and spin densities:
               1          2
     1  O   -0.449217   0.566375
     2  O   -0.550783   0.433625
     3  O   -0.550783   0.433625
     4  O   -0.449217   0.566375
 Sum of Mulliken charges =  -2.00000   2.00000

 Dipole moment (field-independent basis, Debye):
    X=             -0.0000    Y=             -0.0000    Z=             -0.0000  Tot=              0.0000
 Quadrupole moment (field-independent basis, Debye-Ang):
   XX=            -24.9428   YY=            -24.9428   ZZ=           -148.0045
   XY=              0.0000   XZ=              0.0000   YZ=              0.0000

 Normal termination of Gaussian 16 at Sun Jan  1 01:21:56 2023.
