 Gaussian 16, Revision A.03,
 Gaussian 16:  ES64L-G16RevA.03 25-Dec-2016

 -------------------------------------
 #p CCSD(T)/cc-pVTZ Guess=Read SCF=XQC
 -------------------------------------

 ---------
 O2_O2_223
 ---------
 Symbolic Z-matrix:
 Charge = -2 Multiplicity = 3

                         Standard orientation:
 ---------------------------------------------------------------------
 Center     Atomic      Atomic             Coordinates (Angstroms)
 Number     Number       Type             X           Y           Z
 ---------------------------------------------------------------------
      1          8           0        0.000000    0.000000    2.371258
      2          8           0        0.000000    0.000000    3.723638
      3          8           0        0.000000    0.000000   -3.723638
      4          8           0        0.000000    0.000000   -2.371258
 ---------------------------------------------------------------------

 SCF Done:  E(UHF) =  -298.959442593     A.U. after   11 cycles
 E2 =    -0.1232988754D+01 EUMP2 =    -0.30019243134692D+03
 CCSD(T)
 CCSD(T)= -0.30013041724D+03

 The electronic state is 3-SGG.
 Alpha  occ. eigenvalues --  -20.22623 -20.22623 -20.20572 -20.20572  -1.07441
 Alpha  occ. eigenvalues --   -1.07441  -0.71049  -0.71044  -0.25977  -0.25977
 Alpha  occ. eigenvalues --   -0.25975  -0.25975  -0.20371  -0.20333  -0.05055
 Alpha  occ. eigenvalues --   -0.05055  -0.05050  -0.05050
 Alpha virt. eigenvalues --    0.71257   0.72184   1.11258   1.12635   1.12763
 Alpha virt. eigenvalues --    1.12763   1.12803   1.12803   1.16367   1.17950
 Alpha virt. eigenvalues --    1.21348   1.21348   1.21463   1.21463   1.34871

  Beta  occ. eigenvalues --  -20.19192 -20.19191 -20.17924 -20.17924  -0.99354
  Beta  occ. eigenvalues --   -0.99343  -0.59753  -0.59661  -0.17853  -0.17797
  Beta  occ. eigenvalues --   -0.11535  -0.11535  -0.11285  -0.11285   0.23697
  Beta  occ. eigenvalues --    0.23697
  Beta virt. eigenvalues --    0.32868   0.32868   0.74365   0.75451   1.13210
  Beta virt. eigenvalues --    1.14280   1.17178   1.17672   1.17672   1.17705
  Beta virt. eigenvalues --    1.17705   1.18994   1.26677   1.26677   1.26799

 Mulliken charges and spin densities:
               1          2
     1  O   -0.435910   0.583779
     2  O   -0.564090   0.416221
     3  O   -0.564090   0.416221
     4  O   -0.435910   0.583779
 Sum of Mulliken charges =  -2.00000   2.00000

 Dipole moment (field-independent basis, Debye):
    X=             -0.0000    Y=              0.0000    Z=              0.0000  Tot=              0.0000
 Quadrupole moment (field-independent basis, Debye-Ang):
   XX=            -24.9473   YY=            -24.9473   ZZ=           -125.2998
   XY=              0.0000   XZ=              0.0000   YZ=              0.0000

 Normal termination of Gaussian 16 at Sun Jan  1 00:16:58 2023.
