 Gaussian 16, Revision A.03,
 Gaussian 16:  ES64L-G16RevA.03 25-Dec-2016

 -------------------------------------
 #p CCSD(T)/cc-pVTZ Guess=Read SCF=XQC
 -------------------------------------

 ---------
 O2_O2_184
 ---------
 Symbolic Z-matrix:
 Charge = -2 Multiplicity = 3

                         Standard orientation:
 ---------------------------------------------------------------------
 Center     Atomic      Atomic             Coordinates (Angstroms)
 Number     Number       Type             X           Y           Z
 ---------------------------------------------------------------------
      1          8           0        0.000000    0.000000    2.095165
      2          8           0        0.000000    0.000000    3.447545
      3          8           0        0.000000    0.000000   -3.447545
      4          8           0        0.000000    0.000000   -2.095165
 ---------------------------------------------------------------------

 SCF Done:  E(UHF) =  -298.956218273     A.U. after   11 cycles
 E2 =    -0.1201272755D+01 EUMP2 =    -0.30015749102811D+03
 CCSD(T)
 CCSD(T)= -0.30011929306D+03

 The electronic state is 3-SGG.
 Alpha  occ. eigenvalues --  -20.21996 -20.21996 -20.19466 -20.19466  -1.06608
 Alpha  occ. eigenvalues --   -1.06605  -0.70168  -0.70144  -0.25156  -0.25156
 Alpha  occ. eigenvalues --   -0.25145  -0.25145  -0.19530  -0.19387  -0.04176
 Alpha  occ. eigenvalues --   -0.04176  -0.04153  -0.04153
 Alpha virt. eigenvalues --    0.71166   0.74004   1.09964   1.13512   1.13512
 Alpha virt. eigenvalues --    1.13724   1.13724   1.14122   1.16220   1.21990
 Alpha virt. eigenvalues --    1.21990   1.22481   1.22581   1.22581   1.35685

  Beta  occ. eigenvalues --  -20.18476 -20.18475 -20.16906 -20.16906  -0.98500
  Beta  occ. eigenvalues --   -0.98479  -0.58901  -0.58744  -0.17019  -0.16828
  Beta  occ. eigenvalues --   -0.10746  -0.10746  -0.10402  -0.10402   0.24041
  Beta  occ. eigenvalues --    0.24041
  Beta virt. eigenvalues --    0.34324   0.34324   0.74104   0.77429   1.12116
  Beta virt. eigenvalues --    1.15449   1.16947   1.18433   1.18433   1.18590
  Beta virt. eigenvalues --    1.18590   1.23730   1.27320   1.27320   1.27946

 Mulliken charges and spin densities:
               1          2
     1  O   -0.422396   0.602124
     2  O   -0.577604   0.397876
     3  O   -0.577604   0.397876
     4  O   -0.422396   0.602124
 Sum of Mulliken charges =  -2.00000   2.00000

 Dipole moment (field-independent basis, Debye):
    X=             -0.0000    Y=              0.0000    Z=              0.0000  Tot=              0.0000
 Quadrupole moment (field-independent basis, Debye-Ang):
   XX=            -24.9549   YY=            -24.9549   ZZ=           -110.4180
   XY=              0.0000   XZ=              0.0000   YZ=              0.0000

 64\PMP3-0=-300.1480969\MP4SDQ=-299.9049791\CCSD=-300.0075654\CCSD(T)=-
 Normal termination of Gaussian 16 at Sat Dec 31 23:28:22 2022.
