 Gaussian 16, Revision A.03,
 Gaussian 16:  ES64L-G16RevA.03 25-Dec-2016

 -------------------------------------
 #p CCSD(T)/cc-pVTZ Guess=Read SCF=XQC
 -------------------------------------

 ---------
 O2_O2_173
 ---------
 Symbolic Z-matrix:
 Charge = -2 Multiplicity = 3

                         Standard orientation:
 ---------------------------------------------------------------------
 Center     Atomic      Atomic             Coordinates (Angstroms)
 Number     Number       Type             X           Y           Z
 ---------------------------------------------------------------------
      1          8           0        0.000000    0.000000    2.017293
      2          8           0        0.000000    0.000000    3.369673
      3          8           0        0.000000    0.000000   -3.369673
      4          8           0        0.000000    0.000000   -2.017293
 ---------------------------------------------------------------------

 SCF Done:  E(UHF) =  -298.955411389     A.U. after   11 cycles
 E2 =    -0.1191917892D+01 EUMP2 =    -0.30014732928062D+03
 CCSD(T)
 CCSD(T)= -0.30011577644D+03

 The electronic state is 3-SGG.
 Alpha  occ. eigenvalues --  -20.21817 -20.21817 -20.19110 -20.19110  -1.06352
 Alpha  occ. eigenvalues --   -1.06348  -0.69896  -0.69859  -0.24905  -0.24905
 Alpha  occ. eigenvalues --   -0.24889  -0.24889  -0.19279  -0.19077  -0.03903
 Alpha  occ. eigenvalues --   -0.03903  -0.03869  -0.03869
 Alpha virt. eigenvalues --    0.71031   0.74643   1.09202   1.13715   1.13715
 Alpha virt. eigenvalues --    1.14037   1.14037   1.14472   1.16209   1.22122
 Alpha virt. eigenvalues --    1.22122   1.23011   1.23011   1.24803   1.35935

  Beta  occ. eigenvalues --  -20.18263 -20.18262 -20.16580 -20.16580  -0.98233
  Beta  occ. eigenvalues --   -0.98208  -0.58639  -0.58448  -0.16771  -0.16507
  Beta  occ. eigenvalues --   -0.10503  -0.10503  -0.10122  -0.10122   0.24136
  Beta  occ. eigenvalues --    0.24136
  Beta virt. eigenvalues --    0.34802   0.34802   0.73899   0.78127   1.11405
  Beta virt. eigenvalues --    1.15727   1.16939   1.18650   1.18650   1.18883
  Beta virt. eigenvalues --    1.18883   1.26077   1.27447   1.27447   1.28394

 Mulliken charges and spin densities:
               1          2
     1  O   -0.417750   0.608624
     2  O   -0.582250   0.391376
     3  O   -0.582250   0.391376
     4  O   -0.417750   0.608624
 Sum of Mulliken charges =  -2.00000   2.00000

 Dipole moment (field-independent basis, Debye):
    X=             -0.0000    Y=              0.0000    Z=             -0.0000  Tot=              0.0000
 Quadrupole moment (field-independent basis, Debye-Ang):
   XX=            -24.9584   YY=            -24.9584   ZZ=           -106.5042
   XY=              0.0000   XZ=              0.0000   YZ=              0.0000

 Normal termination of Gaussian 16 at Sat Dec 31 23:14:36 2022.
