 Gaussian 16, Revision A.03,
 Gaussian 16:  ES64L-G16RevA.03 25-Dec-2016

 -------------------------------------
 #p CCSD(T)/cc-pVTZ Guess=Read SCF=XQC
 -------------------------------------

 --------
 O2_O2_19
 --------
 Symbolic Z-matrix:
 Charge = -2 Multiplicity = 3

                         Standard orientation:
 ---------------------------------------------------------------------
 Center     Atomic      Atomic             Coordinates (Angstroms)
 Number     Number       Type             X           Y           Z
 ---------------------------------------------------------------------
      1          8           0        0.000000    0.000000    0.927082
      2          8           0        0.000000    0.000000    2.279462
      3          8           0        0.000000    0.000000   -2.279462
      4          8           0        0.000000    0.000000   -0.927082
 ---------------------------------------------------------------------

 SCF Done:  E(UHF) =  -298.957534689     A.U. after   12 cycles
 E2 =    -0.1029036260D+01 EUMP2 =    -0.29998657094867D+03
 CCSD(T)
 CCSD(T)= -0.30002531179D+03

 The electronic state is 3-SGG.
 Alpha  occ. eigenvalues --  -20.19708 -20.19707 -20.09327 -20.09327  -1.03384
 Alpha  occ. eigenvalues --   -1.00717  -0.67749  -0.60516  -0.22571  -0.22571
 Alpha  occ. eigenvalues --   -0.19450  -0.19127  -0.19127  -0.05713   0.01540
 Alpha  occ. eigenvalues --    0.01540   0.04007   0.04007
 Alpha virt. eigenvalues --    0.78156   0.86617   1.15652   1.15652   1.16920
 Alpha virt. eigenvalues --    1.18336   1.21675   1.21675   1.25958   1.25958
 Alpha virt. eigenvalues --    1.38615   1.38819   1.40846   1.40846   1.47907

  Beta  occ. eigenvalues --  -20.14756 -20.14746 -20.07927 -20.07927  -0.93749
  Beta  occ. eigenvalues --   -0.91608  -0.58984  -0.48124  -0.16864  -0.06860
  Beta  occ. eigenvalues --   -0.06860  -0.03396  -0.03396  -0.02014   0.21718
  Beta  occ. eigenvalues --    0.21718
  Beta virt. eigenvalues --    0.50779   0.50779   0.82142   0.90465   1.18532
  Beta virt. eigenvalues --    1.18586   1.22847   1.22847   1.25130   1.25130
  Beta virt. eigenvalues --    1.30333   1.30333   1.39012   1.39707   1.47052

 Mulliken charges and spin densities:
               1          2
     1  O   -0.233778   0.830770
     2  O   -0.766222   0.169230
     3  O   -0.766222   0.169230
     4  O   -0.233778   0.830770
 Sum of Mulliken charges =  -2.00000   2.00000

 Dipole moment (field-independent basis, Debye):
    X=             -0.0000    Y=              0.0000    Z=             -0.0000  Tot=              0.0000
 Quadrupole moment (field-independent basis, Debye-Ang):
   XX=            -25.1049   YY=            -25.1049   ZZ=            -66.3683
   XY=              0.0000   XZ=              0.0000   YZ=              0.0000

 Normal termination of Gaussian 16 at Sat Dec 31 20:07:43 2022.
