 Gaussian 16, Revision A.03,
 Gaussian 16:  ES64L-G16RevA.03 25-Dec-2016

 -------------------------------------
 #p CCSD(T)/cc-pVTZ Guess=Read SCF=XQC
 -------------------------------------

 ---------
 O2_O2_150
 ---------
 Symbolic Z-matrix:
 Charge = -2 Multiplicity = 3

                         Standard orientation:
 ---------------------------------------------------------------------
 Center     Atomic      Atomic             Coordinates (Angstroms)
 Number     Number       Type             X           Y           Z
 ---------------------------------------------------------------------
      1          8           0        0.000000    0.000000    1.854469
      2          8           0        0.000000    0.000000    3.206849
      3          8           0        0.000000    0.000000   -3.206849
      4          8           0        0.000000    0.000000   -1.854469
 ---------------------------------------------------------------------

 SCF Done:  E(UHF) =  -298.954101019     A.U. after   11 cycles
 E2 =    -0.1171483988D+01 EUMP2 =    -0.30012558500736D+03
 CCSD(T)
 CCSD(T)= -0.30010780411D+03

 The electronic state is 3-SGG.
 Alpha  occ. eigenvalues --  -20.21455 -20.21455 -20.18284 -20.18284  -1.05792
 Alpha  occ. eigenvalues --   -1.05780  -0.69293  -0.69211  -0.24362  -0.24362
 Alpha  occ. eigenvalues --   -0.24325  -0.24325  -0.18745  -0.18352  -0.03298
 Alpha  occ. eigenvalues --   -0.03298  -0.03224  -0.03224
 Alpha virt. eigenvalues --    0.70793   0.76079   1.07580   1.14076   1.14076
 Alpha virt. eigenvalues --    1.14794   1.14794   1.15049   1.16373   1.22266
 Alpha virt. eigenvalues --    1.22266   1.24193   1.24193   1.31631   1.36500

  Beta  occ. eigenvalues --  -20.17812 -20.17810 -20.15832 -20.15832  -0.97638
  Beta  occ. eigenvalues --   -0.97597  -0.58062  -0.57764  -0.16249  -0.15744
  Beta  occ. eigenvalues --   -0.09968  -0.09968  -0.09488  -0.09488   0.24319
  Beta  occ. eigenvalues --    0.24319
  Beta virt. eigenvalues --    0.35932   0.35932   0.73523   0.79694   1.09867
  Beta virt. eigenvalues --    1.16205   1.17132   1.19079   1.19079   1.19574
  Beta virt. eigenvalues --    1.19574   1.27555   1.27555   1.29636   1.29636

 Mulliken charges and spin densities:
               1          2
     1  O   -0.406378   0.624823
     2  O   -0.593622   0.375177
     3  O   -0.593622   0.375177
     4  O   -0.406378   0.624823
 Sum of Mulliken charges =  -2.00000   2.00000

 Dipole moment (field-independent basis, Debye):
    X=             -0.0000    Y=              0.0000    Z=              0.0000  Tot=              0.0000
 Quadrupole moment (field-independent basis, Debye-Ang):
   XX=            -24.9692   YY=            -24.9692   ZZ=            -98.7334
   XY=              0.0000   XZ=              0.0000   YZ=              0.0000

 Normal termination of Gaussian 16 at Sat Dec 31 22:46:46 2022.
