 Gaussian 16, Revision A.03,
 Gaussian 16:  ES64L-G16RevA.03 25-Dec-2016

 -------------------------------------
 #p CCSD(T)/cc-pVTZ Guess=Read SCF=XQC
 -------------------------------------

 ---------
 O2_O2_226
 ---------
 Symbolic Z-matrix:
 Charge = -2 Multiplicity = 3

                         Standard orientation:
 ---------------------------------------------------------------------
 Center     Atomic      Atomic             Coordinates (Angstroms)
 Number     Number       Type             X           Y           Z
 ---------------------------------------------------------------------
      1          8           0        0.000000    0.000000    2.392496
      2          8           0        0.000000    0.000000    3.744876
      3          8           0        0.000000    0.000000   -3.744876
      4          8           0        0.000000    0.000000   -2.392496
 ---------------------------------------------------------------------

 SCF Done:  E(UHF) =  -298.959695936     A.U. after   11 cycles
 E2 =    -0.1235360983D+01 EUMP2 =    -0.30019505691966D+03
 CCSD(T)
 CCSD(T)= -0.30013119436D+03

 The electronic state is 3-SGG.
 Alpha  occ. eigenvalues --  -20.22669 -20.22669 -20.20648 -20.20648  -1.07501
 Alpha  occ. eigenvalues --   -1.07500  -0.71111  -0.71107  -0.26036  -0.26036
 Alpha  occ. eigenvalues --   -0.26034  -0.26034  -0.20431  -0.20398  -0.05117
 Alpha  occ. eigenvalues --   -0.05117  -0.05113  -0.05113
 Alpha virt. eigenvalues --    0.71238   0.72075   1.11277   1.12522   1.12707
 Alpha virt. eigenvalues --    1.12707   1.12742   1.12742   1.16362   1.17765
 Alpha virt. eigenvalues --    1.21294   1.21294   1.21394   1.21394   1.34812

  Beta  occ. eigenvalues --  -20.19244 -20.19243 -20.17994 -20.17994  -0.99414
  Beta  occ. eigenvalues --   -0.99403  -0.59813  -0.59725  -0.17914  -0.17863
  Beta  occ. eigenvalues --   -0.11591  -0.11591  -0.11347  -0.11347   0.23671
  Beta  occ. eigenvalues --    0.23671
  Beta virt. eigenvalues --    0.32768   0.32768   0.74353   0.75334   1.13217
  Beta virt. eigenvalues --    1.14187   1.17181   1.17616   1.17616   1.17645
  Beta virt. eigenvalues --    1.17645   1.18794   1.26623   1.26623   1.26729

 Mulliken charges and spin densities:
               1          2
     1  O   -0.436796   0.582604
     2  O   -0.563204   0.417396
     3  O   -0.563204   0.417396
     4  O   -0.436796   0.582604
 Sum of Mulliken charges =  -2.00000   2.00000

 Dipole moment (field-independent basis, Debye):
    X=             -0.0000    Y=              0.0000    Z=             -0.0000  Tot=              0.0000
 Quadrupole moment (field-independent basis, Debye-Ang):
   XX=            -24.9470   YY=            -24.9470   ZZ=           -126.5090
   XY=              0.0000   XZ=              0.0000   YZ=              0.0000

 Normal termination of Gaussian 16 at Sun Jan  1 00:20:38 2023.
