 Gaussian 16, Revision A.03,
 Gaussian 16:  ES64L-G16RevA.03 25-Dec-2016

 -------------------------------------
 #p CCSD(T)/cc-pVTZ Guess=Read SCF=XQC
 -------------------------------------

 ---------
 O2_O2_122
 ---------
 Symbolic Z-matrix:
 Charge = -2 Multiplicity = 3

                         Standard orientation:
 ---------------------------------------------------------------------
 Center     Atomic      Atomic             Coordinates (Angstroms)
 Number     Number       Type             X           Y           Z
 ---------------------------------------------------------------------
      1          8           0        0.000000    0.000000    1.656249
      2          8           0        0.000000    0.000000    3.008629
      3          8           0        0.000000    0.000000   -3.008629
      4          8           0        0.000000    0.000000   -1.656249
 ---------------------------------------------------------------------

 SCF Done:  E(UHF) =  -298.953765294     A.U. after   11 cycles
 E2 =    -0.1144412485D+01 EUMP2 =    -0.30009817777913D+03
 CCSD(T)
 CCSD(T)= -0.30009682816D+03

 The electronic state is 3-SGG.
 Alpha  occ. eigenvalues --  -20.21067 -20.21067 -20.17097 -20.17097  -1.05075
 Alpha  occ. eigenvalues --   -1.05038  -0.68511  -0.68295  -0.23684  -0.23684
 Alpha  occ. eigenvalues --   -0.23584  -0.23584  -0.18119  -0.17270  -0.02495
 Alpha  occ. eigenvalues --   -0.02495  -0.02320  -0.02320
 Alpha virt. eigenvalues --    0.71257   0.77874   1.07465   1.14251   1.14251
 Alpha virt. eigenvalues --    1.15482   1.15930   1.15930   1.16906   1.22188
 Alpha virt. eigenvalues --    1.22188   1.26393   1.26393   1.37071   1.37359

  Beta  occ. eigenvalues --  -20.17266 -20.17265 -20.14771 -20.14771  -0.96838
  Beta  occ. eigenvalues --   -0.96757  -0.57330  -0.56765  -0.15650  -0.14586
  Beta  occ. eigenvalues --   -0.09268  -0.09268  -0.08607  -0.08607   0.24475
  Beta  occ. eigenvalues --    0.24475
  Beta virt. eigenvalues --    0.37628   0.37628   0.73972   0.81622   1.09744
  Beta virt. eigenvalues --    1.16584   1.17695   1.19486   1.19486   1.20563
  Beta virt. eigenvalues --    1.20563   1.27328   1.27328   1.31976   1.31976

 Mulliken charges and spin densities:
               1          2
     1  O   -0.388472   0.650805
     2  O   -0.611528   0.349195
     3  O   -0.611528   0.349195
     4  O   -0.388472   0.650805
 Sum of Mulliken charges =  -2.00000   2.00000

 Dipole moment (field-independent basis, Debye):
    X=             -0.0000    Y=              0.0000    Z=              0.0000  Tot=              0.0000
 Quadrupole moment (field-independent basis, Debye-Ang):
   XX=            -24.9911   YY=            -24.9911   ZZ=            -90.0451
   XY=              0.0000   XZ=              0.0000   YZ=              0.0000

 Normal termination of Gaussian 16 at Sat Dec 31 22:11:07 2022.
