 Gaussian 16, Revision A.03,
 Gaussian 16:  ES64L-G16RevA.03 25-Dec-2016

 -------------------------------------
 #p CCSD(T)/cc-pVTZ Guess=Read SCF=XQC
 -------------------------------------

 --------
 O2_O2_68
 --------
 Symbolic Z-matrix:
 Charge = -2 Multiplicity = 3

                         Standard orientation:
 ---------------------------------------------------------------------
 Center     Atomic      Atomic             Coordinates (Angstroms)
 Number     Number       Type             X           Y           Z
 ---------------------------------------------------------------------
      1          8           0        0.000000    0.000000    1.273967
      2          8           0        0.000000    0.000000    2.626348
      3          8           0        0.000000    0.000000   -2.626348
      4          8           0        0.000000    0.000000   -1.273967
 ---------------------------------------------------------------------

 SCF Done:  E(UHF) =  -298.961095506     A.U. after   12 cycles
 E2 =    -0.1083246847D+01 EUMP2 =    -0.30004434235290D+03
 CCSD(T)
 CCSD(T)= -0.30007117397D+03

 The electronic state is 3-SGG.
 Alpha  occ. eigenvalues --  -20.20566 -20.20566 -20.13959 -20.13959  -1.03710
 Alpha  occ. eigenvalues --   -1.03378  -0.67076  -0.65715  -0.22521  -0.22521
 Alpha  occ. eigenvalues --   -0.21900  -0.21900  -0.17480  -0.13881  -0.00672
 Alpha  occ. eigenvalues --   -0.00672   0.00060   0.00060
 Alpha virt. eigenvalues --    0.74985   0.81465   1.13513   1.13513   1.15793
 Alpha virt. eigenvalues --    1.17500   1.18646   1.18646   1.21714   1.22640
 Alpha virt. eigenvalues --    1.22640   1.33639   1.33639   1.38295   1.39089

  Beta  occ. eigenvalues --  -20.16240 -20.16236 -20.12025 -20.12025  -0.95070
  Beta  occ. eigenvalues --   -0.94678  -0.56281  -0.53830  -0.15138  -0.10885
  Beta  occ. eigenvalues --   -0.07832  -0.07832  -0.06433  -0.06433   0.24163
  Beta  occ. eigenvalues --    0.24163
  Beta virt. eigenvalues --    0.42603   0.42603   0.78350   0.85357   1.16926
  Beta virt. eigenvalues --    1.17985   1.19957   1.19957   1.22750   1.22750
  Beta virt. eigenvalues --    1.23867   1.26997   1.26997   1.38672   1.39630

 Mulliken charges and spin densities:
               1          2
     1  O   -0.332714   0.729690
     2  O   -0.667286   0.270310
     3  O   -0.667286   0.270310
     4  O   -0.332714   0.729690
 Sum of Mulliken charges =  -2.00000   2.00000

 Dipole moment (field-independent basis, Debye):
    X=             -0.0000    Y=              0.0000    Z=              0.0000  Tot=              0.0000
 Quadrupole moment (field-independent basis, Debye-Ang):
   XX=            -25.0711   YY=            -25.0711   ZZ=            -75.7513
   XY=              0.0000   XZ=              0.0000   YZ=              0.0000

 Normal termination of Gaussian 16 at Sat Dec 31 21:05:56 2022.
