 Gaussian 16, Revision A.03,
 Gaussian 16:  ES64L-G16RevA.03 25-Dec-2016

 -------------------------------------
 #p CCSD(T)/cc-pVTZ Guess=Read SCF=XQC
 -------------------------------------

 ---------
 O2_O2_248
 ---------
 Symbolic Z-matrix:
 Charge = -2 Multiplicity = 3

                         Standard orientation:
 ---------------------------------------------------------------------
 Center     Atomic      Atomic             Coordinates (Angstroms)
 Number     Number       Type             X           Y           Z
 ---------------------------------------------------------------------
      1          8           0        0.000000    0.000000    2.548240
      2          8           0        0.000000    0.000000    3.900620
      3          8           0        0.000000    0.000000   -3.900620
      4          8           0        0.000000    0.000000   -2.548240
 ---------------------------------------------------------------------

 SCF Done:  E(UHF) =  -298.961519445     A.U. after   11 cycles
 E2 =    -0.1252566718D+01 EUMP2 =    -0.30021408616348D+03
 CCSD(T)
 CCSD(T)= -0.30013658823D+03

 The electronic state is 3-SGG.
 Alpha  occ. eigenvalues --  -20.22996 -20.22996 -20.21173 -20.21173  -1.07914
 Alpha  occ. eigenvalues --   -1.07914  -0.71544  -0.71542  -0.26445  -0.26445
 Alpha  occ. eigenvalues --   -0.26445  -0.26445  -0.20857  -0.20843  -0.05548
 Alpha  occ. eigenvalues --   -0.05548  -0.05547  -0.05547
 Alpha virt. eigenvalues --    0.71018   0.71390   1.11232   1.11787   1.12307
 Alpha virt. eigenvalues --    1.12307   1.12320   1.12320   1.16218   1.16763
 Alpha virt. eigenvalues --    1.20901   1.20901   1.20936   1.20936   1.34405

  Beta  occ. eigenvalues --  -20.19608 -20.19607 -20.18481 -20.18481  -0.99832
  Beta  occ. eigenvalues --   -0.99824  -0.60234  -0.60163  -0.18338  -0.18313
  Beta  occ. eigenvalues --   -0.11983  -0.11983  -0.11775  -0.11775   0.23487
  Beta  occ. eigenvalues --    0.23487
  Beta virt. eigenvalues --    0.32085   0.32085   0.74170   0.74607   1.13115
  Beta virt. eigenvalues --    1.13562   1.17075   1.17221   1.17221   1.17232
  Beta virt. eigenvalues --    1.17232   1.17713   1.26226   1.26226   1.26263

 Mulliken charges and spin densities:
               1          2
     1  O   -0.442767   0.574764
     2  O   -0.557233   0.425236
     3  O   -0.557233   0.425236
     4  O   -0.442767   0.574764
 Sum of Mulliken charges =  -2.00000   2.00000

 Dipole moment (field-independent basis, Debye):
    X=             -0.0000    Y=              0.0000    Z=              0.0000  Tot=              0.0000
 Quadrupole moment (field-independent basis, Debye-Ang):
   XX=            -24.9448   YY=            -24.9448   ZZ=           -135.6555
   XY=              0.0000   XZ=              0.0000   YZ=              0.0000

 Normal termination of Gaussian 16 at Sun Jan  1 00:47:30 2023.
