 Gaussian 16, Revision A.03,
 Gaussian 16:  ES64L-G16RevA.03 25-Dec-2016

 -------------------------------------
 #p CCSD(T)/cc-pVTZ Guess=Read SCF=XQC
 -------------------------------------

 --------
 O2_O2_48
 --------
 Symbolic Z-matrix:
 Charge = -2 Multiplicity = 3

                         Standard orientation:
 ---------------------------------------------------------------------
 Center     Atomic      Atomic             Coordinates (Angstroms)
 Number     Number       Type             X           Y           Z
 ---------------------------------------------------------------------
      1          8           0        0.000000    0.000000    1.132382
      2          8           0        0.000000    0.000000    2.484762
      3          8           0        0.000000    0.000000   -2.484762
      4          8           0        0.000000    0.000000   -1.132382
 ---------------------------------------------------------------------

 SCF Done:  E(UHF) =  -298.965781975     A.U. after   12 cycles
 E2 =    -0.1058869751D+01 EUMP2 =    -0.30002465172634D+03
 CCSD(T)
 CCSD(T)= -0.30005878757D+03

 The electronic state is 3-SGG.
 Alpha  occ. eigenvalues --  -20.20356 -20.20355 -20.12367 -20.12367  -1.03314
 Alpha  occ. eigenvalues --   -1.02549  -0.66829  -0.64144  -0.22270  -0.22270
 Alpha  occ. eigenvalues --   -0.21042  -0.21042  -0.17790  -0.11611   0.00148
 Alpha  occ. eigenvalues --    0.00148   0.01349   0.01349
 Alpha virt. eigenvalues --    0.76400   0.83129   1.13769   1.13769   1.16127
 Alpha virt. eigenvalues --    1.18153   1.19780   1.19780   1.23550   1.23550
 Alpha virt. eigenvalues --    1.31417   1.36781   1.36781   1.38624   1.39921

  Beta  occ. eigenvalues --  -20.15767 -20.15762 -20.10637 -20.10637  -0.94386
  Beta  occ. eigenvalues --   -0.93635  -0.56500  -0.52053  -0.15483  -0.08407
  Beta  occ. eigenvalues --   -0.07327  -0.07327  -0.05382  -0.05382   0.23572
  Beta  occ. eigenvalues --    0.23572
  Beta virt. eigenvalues --    0.45379   0.45379   0.80053   0.87045   1.17342
  Beta virt. eigenvalues --    1.18543   1.20717   1.20717   1.23629   1.23629
  Beta virt. eigenvalues --    1.27700   1.27700   1.33504   1.38958   1.40356

 Mulliken charges and spin densities:
               1          2
     1  O   -0.300082   0.769695
     2  O   -0.699918   0.230305
     3  O   -0.699918   0.230305
     4  O   -0.300082   0.769695
 Sum of Mulliken charges =  -2.00000   2.00000

 Dipole moment (field-independent basis, Debye):
    X=             -0.0000    Y=              0.0000    Z=              0.0000  Tot=              0.0000
 Quadrupole moment (field-independent basis, Debye-Ang):
   XX=            -25.1061   YY=            -25.1061   ZZ=            -71.3804
   XY=              0.0000   XZ=              0.0000   YZ=              0.0000

 Normal termination of Gaussian 16 at Sat Dec 31 20:41:50 2022.
