 Gaussian 16, Revision A.03,
 Gaussian 16:  ES64L-G16RevA.03 25-Dec-2016

 -------------------------------------
 #p CCSD(T)/cc-pVTZ Guess=Read SCF=XQC
 -------------------------------------

 --------
 O2_O2_84
 --------
 Symbolic Z-matrix:
 Charge = -2 Multiplicity = 3

                         Standard orientation:
 ---------------------------------------------------------------------
 Center     Atomic      Atomic             Coordinates (Angstroms)
 Number     Number       Type             X           Y           Z
 ---------------------------------------------------------------------
      1          8           0        0.000000    0.000000    1.387236
      2          8           0        0.000000    0.000000    2.739616
      3          8           0        0.000000    0.000000   -2.739616
      4          8           0        0.000000    0.000000   -1.387236
 ---------------------------------------------------------------------

 SCF Done:  E(UHF) =  -298.957577514     A.U. after   12 cycles
 E2 =    -0.1102535771D+01 EUMP2 =    -0.30006011328491D+03
 CCSD(T)
 CCSD(T)= -0.30007949948D+03

 The electronic state is 3-SGG.
 Alpha  occ. eigenvalues --  -20.20691 -20.20691 -20.15038 -20.15038  -1.04094
 Alpha  occ. eigenvalues --   -1.03922  -0.67450  -0.66659  -0.22819  -0.22819
 Alpha  occ. eigenvalues --   -0.22458  -0.22458  -0.17520  -0.15172  -0.01261
 Alpha  occ. eigenvalues --   -0.01261  -0.00773  -0.00773
 Alpha virt. eigenvalues --    0.73741   0.80325   1.13739   1.13739   1.14306
 Alpha virt. eigenvalues --    1.15675   1.17790   1.17790   1.18273   1.22254
 Alpha virt. eigenvalues --    1.22254   1.31155   1.31155   1.37971   1.38550

  Beta  occ. eigenvalues --  -20.16554 -20.16551 -20.12964 -20.12963  -0.95620
  Beta  occ. eigenvalues --   -0.95381  -0.56458  -0.54911  -0.15130  -0.12299
  Beta  occ. eigenvalues --   -0.08259  -0.08259  -0.07160  -0.07160   0.24396
  Beta  occ. eigenvalues --    0.24396
  Beta virt. eigenvalues --    0.40809   0.40809   0.76862   0.84185   1.15854
  Beta virt. eigenvalues --    1.16782   1.19508   1.19746   1.19746   1.22079
  Beta virt. eigenvalues --    1.22079   1.26871   1.26871   1.37047   1.37047

 Mulliken charges and spin densities:
               1          2
     1  O   -0.353140   0.701704
     2  O   -0.646860   0.298296
     3  O   -0.646860   0.298296
     4  O   -0.353140   0.701704
 Sum of Mulliken charges =  -2.00000   2.00000

 Dipole moment (field-independent basis, Debye):
    X=             -0.0000    Y=             -0.0000    Z=             -0.0000  Tot=              0.0000
 Quadrupole moment (field-independent basis, Debye-Ang):
   XX=            -25.0424   YY=            -25.0424   ZZ=            -79.6361
   XY=              0.0000   XZ=              0.0000   YZ=              0.0000

 Normal termination of Gaussian 16 at Sat Dec 31 21:24:48 2022.
