 Gaussian 16, Revision A.03,
 Gaussian 16:  ES64L-G16RevA.03 25-Dec-2016

 -------------------------------------
 #p CCSD(T)/cc-pVTZ Guess=Read SCF=XQC
 -------------------------------------

 ---------
 O2_O2_278
 ---------
 Symbolic Z-matrix:
 Charge = -2 Multiplicity = 3

                         Standard orientation:
 ---------------------------------------------------------------------
 Center     Atomic      Atomic             Coordinates (Angstroms)
 Number     Number       Type             X           Y           Z
 ---------------------------------------------------------------------
      1          8           0        0.000000    0.000000    2.760619
      2          8           0        0.000000    0.000000    4.112999
      3          8           0        0.000000    0.000000   -4.112999
      4          8           0        0.000000    0.000000   -2.760619
 ---------------------------------------------------------------------

 SCF Done:  E(UHF) =  -298.963851522     A.U. after   11 cycles
 E2 =    -0.1275649586D+01 EUMP2 =    -0.30023950110834D+03
 CCSD(T)
 CCSD(T)= -0.30014316783D+03

 The electronic state is 3-SGG.
 Alpha  occ. eigenvalues --  -20.23407 -20.23407 -20.21805 -20.21805  -1.08422
 Alpha  occ. eigenvalues --   -1.08422  -0.72072  -0.72072  -0.26950  -0.26950
 Alpha  occ. eigenvalues --   -0.26949  -0.26949  -0.21383  -0.21379  -0.06076
 Alpha  occ. eigenvalues --   -0.06076  -0.06076  -0.06076
 Alpha virt. eigenvalues --    0.70595   0.70699   1.10891   1.11045   1.11809
 Alpha virt. eigenvalues --    1.11809   1.11811   1.11811   1.15817   1.15946
 Alpha virt. eigenvalues --    1.20394   1.20394   1.20402   1.20402   1.33907

  Beta  occ. eigenvalues --  -20.20059 -20.20059 -20.19071 -20.19071  -1.00345
  Beta  occ. eigenvalues --   -1.00339  -0.60750  -0.60695  -0.18864  -0.18853
  Beta  occ. eigenvalues --   -0.12468  -0.12468  -0.12297  -0.12297   0.23254
  Beta  occ. eigenvalues --    0.23254
  Beta virt. eigenvalues --    0.31264   0.31264   0.73767   0.73890   1.12755
  Beta virt. eigenvalues --    1.12890   1.16690   1.16728   1.16728   1.16731
  Beta virt. eigenvalues --    1.16731   1.16847   1.25715   1.25715   1.25724

 Mulliken charges and spin densities:
               1          2
     1  O   -0.449635   0.565832
     2  O   -0.550365   0.434168
     3  O   -0.550365   0.434168
     4  O   -0.449635   0.565832
 Sum of Mulliken charges =  -2.00000   2.00000

 Dipole moment (field-independent basis, Debye):
    X=             -0.0000    Y=              0.0000    Z=              0.0000  Tot=              0.0000
 Quadrupole moment (field-independent basis, Debye-Ang):
   XX=            -24.9427   YY=            -24.9427   ZZ=           -148.9167
   XY=              0.0000   XZ=              0.0000   YZ=              0.0000

 Normal termination of Gaussian 16 at Sun Jan  1 01:24:21 2023.
