 Gaussian 16, Revision A.03,
 Gaussian 16:  ES64L-G16RevA.03 25-Dec-2016

 -------------------------------------
 #p CCSD(T)/cc-pVTZ Guess=Read SCF=XQC
 -------------------------------------

 ---------
 O2_O2_268
 ---------
 Symbolic Z-matrix:
 Charge = -2 Multiplicity = 3

                         Standard orientation:
 ---------------------------------------------------------------------
 Center     Atomic      Atomic             Coordinates (Angstroms)
 Number     Number       Type             X           Y           Z
 ---------------------------------------------------------------------
      1          8           0        0.000000    0.000000    2.689826
      2          8           0        0.000000    0.000000    4.042206
      3          8           0        0.000000    0.000000   -4.042206
      4          8           0        0.000000    0.000000   -2.689826
 ---------------------------------------------------------------------

 SCF Done:  E(UHF) =  -298.963097075     A.U. after   11 cycles
 E2 =    -0.1267991881D+01 EUMP2 =    -0.30023108895575D+03
 CCSD(T)
 CCSD(T)= -0.30014106533D+03

 The electronic state is 3-SGG.
 Alpha  occ. eigenvalues --  -20.23275 -20.23275 -20.21604 -20.21604  -1.08259
 Alpha  occ. eigenvalues --   -1.08259  -0.71903  -0.71903  -0.26788  -0.26788
 Alpha  occ. eigenvalues --   -0.26788  -0.26788  -0.21214  -0.21208  -0.05907
 Alpha  occ. eigenvalues --   -0.05907  -0.05907  -0.05907
 Alpha virt. eigenvalues --    0.70744   0.70906   1.11023   1.11264   1.11969
 Alpha virt. eigenvalues --    1.11969   1.11973   1.11973   1.15966   1.16178
 Alpha virt. eigenvalues --    1.20558   1.20558   1.20571   1.20571   1.34066

  Beta  occ. eigenvalues --  -20.19914 -20.19914 -20.18883 -20.18883  -1.00181
  Beta  occ. eigenvalues --   -1.00174  -0.60585  -0.60526  -0.18696  -0.18682
  Beta  occ. eigenvalues --   -0.12312  -0.12312  -0.12130  -0.12130   0.23329
  Beta  occ. eigenvalues --    0.23329
  Beta virt. eigenvalues --    0.31525   0.31525   0.73912   0.74103   1.12889
  Beta virt. eigenvalues --    1.13093   1.16836   1.16886   1.16886   1.16891
  Beta virt. eigenvalues --    1.16891   1.17090   1.25880   1.25880   1.25894

 Mulliken charges and spin densities:
               1          2
     1  O   -0.447489   0.568617
     2  O   -0.552511   0.431383
     3  O   -0.552511   0.431383
     4  O   -0.447489   0.568617
 Sum of Mulliken charges =  -2.00000   2.00000

 Dipole moment (field-independent basis, Debye):
    X=             -0.0000    Y=              0.0000    Z=              0.0000  Tot=              0.0000
 Quadrupole moment (field-independent basis, Debye-Ang):
   XX=            -24.9433   YY=            -24.9433   ZZ=           -144.3956
   XY=              0.0000   XZ=              0.0000   YZ=              0.0000

 Normal termination of Gaussian 16 at Sun Jan  1 01:12:12 2023.
