 Gaussian 16, Revision A.03,
 Gaussian 16:  ES64L-G16RevA.03 25-Dec-2016

 -------------------------------------
 #p CCSD(T)/cc-pVTZ Guess=Read SCF=XQC
 -------------------------------------

 ---------
 O2_O2_104
 ---------
 Symbolic Z-matrix:
 Charge = -2 Multiplicity = 3

                         Standard orientation:
 ---------------------------------------------------------------------
 Center     Atomic      Atomic             Coordinates (Angstroms)
 Number     Number       Type             X           Y           Z
 ---------------------------------------------------------------------
      1          8           0        0.000000    0.000000    1.528822
      2          8           0        0.000000    0.000000    2.881202
      3          8           0        0.000000    0.000000   -2.881202
      4          8           0        0.000000    0.000000   -1.528822
 ---------------------------------------------------------------------

 SCF Done:  E(UHF) =  -298.954794220     A.U. after   11 cycles
 E2 =    -0.1125356649D+01 EUMP2 =    -0.30008015086941D+03
 CCSD(T)
 CCSD(T)= -0.30008898050D+03

 The electronic state is 3-SGG.
 Alpha  occ. eigenvalues --  -20.20866 -20.20866 -20.16198 -20.16198  -1.04606
 Alpha  occ. eigenvalues --   -1.04530  -0.67998  -0.67597  -0.23257  -0.23257
 Alpha  occ. eigenvalues --   -0.23073  -0.23073  -0.17777  -0.16400  -0.01935
 Alpha  occ. eigenvalues --   -0.01935  -0.01646  -0.01646
 Alpha virt. eigenvalues --    0.72243   0.79018   1.09564   1.14103   1.14103
 Alpha virt. eigenvalues --    1.15607   1.16775   1.16775   1.17413   1.22119
 Alpha virt. eigenvalues --    1.22119   1.28392   1.28392   1.37518   1.37908

  Beta  occ. eigenvalues --  -20.16926 -20.16924 -20.13977 -20.13977  -0.96280
  Beta  occ. eigenvalues --   -0.96147  -0.56877  -0.55982  -0.15337  -0.13641
  Beta  occ. eigenvalues --   -0.08795  -0.08795  -0.07964  -0.07964   0.24498
  Beta  occ. eigenvalues --    0.24498
  Beta virt. eigenvalues --    0.38978   0.38978   0.75097   0.82828   1.11697
  Beta virt. eigenvalues --    1.16703   1.18245   1.19636   1.19636   1.21264
  Beta virt. eigenvalues --    1.21264   1.27055   1.27055   1.34110   1.34110

 Mulliken charges and spin densities:
               1          2
     1  O   -0.373686   0.672320
     2  O   -0.626314   0.327680
     3  O   -0.626314   0.327680
     4  O   -0.373686   0.672320
 Sum of Mulliken charges =  -2.00000   2.00000

 Dipole moment (field-independent basis, Debye):
    X=             -0.0000    Y=             -0.0000    Z=              0.0000  Tot=              0.0000
 Quadrupole moment (field-independent basis, Debye-Ang):
   XX=            -25.0120   YY=            -25.0120   ZZ=            -84.9138
   XY=              0.0000   XZ=              0.0000   YZ=              0.0000

 Normal termination of Gaussian 16 at Sat Dec 31 21:49:12 2022.
