 Gaussian 16, Revision A.03,
 Gaussian 16:  ES64L-G16RevA.03 25-Dec-2016

 -------------------------------------
 #p CCSD(T)/cc-pVTZ Guess=Read SCF=XQC
 -------------------------------------

 ---------
 O2_O2_145
 ---------
 Symbolic Z-matrix:
 Charge = -2 Multiplicity = 3

                         Standard orientation:
 ---------------------------------------------------------------------
 Center     Atomic      Atomic             Coordinates (Angstroms)
 Number     Number       Type             X           Y           Z
 ---------------------------------------------------------------------
      1          8           0        0.000000    0.000000    1.819073
      2          8           0        0.000000    0.000000    3.171453
      3          8           0        0.000000    0.000000   -3.171453
      4          8           0        0.000000    0.000000   -1.819073
 ---------------------------------------------------------------------

 SCF Done:  E(UHF) =  -298.953914906     A.U. after   11 cycles
 E2 =    -0.1166849887D+01 EUMP2 =    -0.30012076479355D+03
 CCSD(T)
 CCSD(T)= -0.30010595133D+03

 The electronic state is 3-SGG.
 Alpha  occ. eigenvalues --  -20.21380 -20.21380 -20.18088 -20.18088  -1.05667
 Alpha  occ. eigenvalues --   -1.05652  -0.69157  -0.69059  -0.24242  -0.24242
 Alpha  occ. eigenvalues --   -0.24197  -0.24197  -0.18629  -0.18177  -0.03160
 Alpha  occ. eigenvalues --   -0.03160  -0.03073  -0.03073
 Alpha virt. eigenvalues --    0.70790   0.76400   1.07338   1.14135   1.14135
 Alpha virt. eigenvalues --    1.14979   1.14979   1.15148   1.16443   1.22270
 Alpha virt. eigenvalues --    1.22270   1.24515   1.24515   1.33475   1.36650

  Beta  occ. eigenvalues --  -20.17713 -20.17712 -20.15656 -20.15656  -0.97501
  Beta  occ. eigenvalues --   -0.97455  -0.57932  -0.57600  -0.16137  -0.15559
  Beta  occ. eigenvalues --   -0.09847  -0.09847  -0.09340  -0.09340   0.24354
  Beta  occ. eigenvalues --    0.24354
  Beta virt. eigenvalues --    0.36206   0.36206   0.73500   0.80041   1.09636
  Beta virt. eigenvalues --    1.16290   1.17208   1.19164   1.19164   1.19739
  Beta virt. eigenvalues --    1.19739   1.27543   1.27543   1.29977   1.29977

 Mulliken charges and spin densities:
               1          2
     1  O   -0.403550   0.628898
     2  O   -0.596450   0.371102
     3  O   -0.596450   0.371102
     4  O   -0.403550   0.628898
 Sum of Mulliken charges =  -2.00000   2.00000

 Dipole moment (field-independent basis, Debye):
    X=             -0.0000    Y=              0.0000    Z=              0.0000  Tot=              0.0000
 Quadrupole moment (field-independent basis, Debye-Ang):
   XX=            -24.9723   YY=            -24.9723   ZZ=            -97.1192
   XY=              0.0000   XZ=              0.0000   YZ=              0.0000

 Normal termination of Gaussian 16 at Sat Dec 31 22:40:49 2022.
