 Gaussian 16, Revision A.03,
 Gaussian 16:  ES64L-G16RevA.03 25-Dec-2016

 -------------------------------------
 #p CCSD(T)/cc-pVTZ Guess=Read SCF=XQC
 -------------------------------------

 ---------
 O2_O2_294
 ---------
 Symbolic Z-matrix:
 Charge = -2 Multiplicity = 3

                         Standard orientation:
 ---------------------------------------------------------------------
 Center     Atomic      Atomic             Coordinates (Angstroms)
 Number     Number       Type             X           Y           Z
 ---------------------------------------------------------------------
      1          8           0        0.000000    0.000000    2.873887
      2          8           0        0.000000    0.000000    4.226267
      3          8           0        0.000000    0.000000   -4.226267
      4          8           0        0.000000    0.000000   -2.873887
 ---------------------------------------------------------------------

 SCF Done:  E(UHF) =  -298.965009284     A.U. after   10 cycles
 E2 =    -0.1287843587D+01 EUMP2 =    -0.30025285287025D+03
 CCSD(T)
 CCSD(T)= -0.30014635766D+03

 The electronic state is 3-SGG.
 Alpha  occ. eigenvalues --  -20.23609 -20.23609 -20.22109 -20.22109  -1.08669
 Alpha  occ. eigenvalues --   -1.08669  -0.72328  -0.72328  -0.27195  -0.27195
 Alpha  occ. eigenvalues --   -0.27195  -0.27195  -0.21639  -0.21637  -0.06331
 Alpha  occ. eigenvalues --   -0.06331  -0.06331  -0.06331
 Alpha virt. eigenvalues --    0.70354   0.70402   1.10665   1.10737   1.11565
 Alpha virt. eigenvalues --    1.11565   1.11566   1.11566   1.15569   1.15625
 Alpha virt. eigenvalues --    1.20144   1.20144   1.20147   1.20147   1.33665

  Beta  occ. eigenvalues --  -20.20280 -20.20280 -20.19355 -20.19355  -1.00593
  Beta  occ. eigenvalues --   -1.00589  -0.61001  -0.60952  -0.19120  -0.19113
  Beta  occ. eigenvalues --   -0.12705  -0.12705  -0.12550  -0.12550   0.23138
  Beta  occ. eigenvalues --    0.23138
  Beta virt. eigenvalues --    0.30869   0.30869   0.73529   0.73587   1.12532
  Beta virt. eigenvalues --    1.12600   1.16442   1.16487   1.16487   1.16489
  Beta virt. eigenvalues --    1.16489   1.16514   1.25463   1.25463   1.25467

 Mulliken charges and spin densities:
               1          2
     1  O   -0.452805   0.561719
     2  O   -0.547195   0.438281
     3  O   -0.547195   0.438281
     4  O   -0.452805   0.561719
 Sum of Mulliken charges =  -2.00000   2.00000

 Dipole moment (field-independent basis, Debye):
    X=             -0.0000    Y=              0.0000    Z=             -0.0000  Tot=              0.0000
 Quadrupole moment (field-independent basis, Debye-Ang):
   XX=            -24.9418   YY=            -24.9418   ZZ=           -156.3593
   XY=              0.0000   XZ=              0.0000   YZ=              0.0000

 Normal termination of Gaussian 16 at Sun Jan  1 01:43:25 2023.
