 Gaussian 16, Revision A.03,
 Gaussian 16:  ES64L-G16RevA.03 25-Dec-2016

 -------------------------------------
 #p CCSD(T)/cc-pVTZ Guess=Read SCF=XQC
 -------------------------------------

 ---------
 O2_O2_242
 ---------
 Symbolic Z-matrix:
 Charge = -2 Multiplicity = 3

                         Standard orientation:
 ---------------------------------------------------------------------
 Center     Atomic      Atomic             Coordinates (Angstroms)
 Number     Number       Type             X           Y           Z
 ---------------------------------------------------------------------
      1          8           0        0.000000    0.000000    2.505764
      2          8           0        0.000000    0.000000    3.858144
      3          8           0        0.000000    0.000000   -3.858144
      4          8           0        0.000000    0.000000   -2.505764
 ---------------------------------------------------------------------

 SCF Done:  E(UHF) =  -298.961029838     A.U. after   11 cycles
 E2 =    -0.1247903408D+01 EUMP2 =    -0.30020893324547D+03
 CCSD(T)
 CCSD(T)= -0.30013516838D+03

 The electronic state is 3-SGG.
 Alpha  occ. eigenvalues --  -20.22909 -20.22909 -20.21035 -20.21035  -1.07805
 Alpha  occ. eigenvalues --   -1.07805  -0.71430  -0.71428  -0.26337  -0.26337
 Alpha  occ. eigenvalues --   -0.26336  -0.26336  -0.20744  -0.20727  -0.05435
 Alpha  occ. eigenvalues --   -0.05435  -0.05433  -0.05433
 Alpha virt. eigenvalues --    0.71089   0.71558   1.11270   1.11970   1.12414
 Alpha virt. eigenvalues --    1.12414   1.12430   1.12430   1.16275   1.16987
 Alpha virt. eigenvalues --    1.21007   1.21007   1.21054   1.21054   1.34512

  Beta  occ. eigenvalues --  -20.19511 -20.19511 -20.18353 -20.18353  -0.99722
  Beta  occ. eigenvalues --   -0.99713  -0.60123  -0.60048  -0.18226  -0.18195
  Beta  occ. eigenvalues --   -0.11879  -0.11879  -0.11662  -0.11662   0.23536
  Beta  occ. eigenvalues --    0.23536
  Beta virt. eigenvalues --    0.32264   0.32264   0.74234   0.74784   1.13164
  Beta virt. eigenvalues --    1.13722   1.17124   1.17326   1.17326   1.17340
  Beta virt. eigenvalues --    1.17340   1.17953   1.26333   1.26333   1.26383

 Mulliken charges and spin densities:
               1          2
     1  O   -0.441226   0.576778
     2  O   -0.558774   0.423222
     3  O   -0.558774   0.423222
     4  O   -0.441226   0.576778
 Sum of Mulliken charges =  -2.00000   2.00000

 Dipole moment (field-independent basis, Debye):
    X=             -0.0000    Y=             -0.0000    Z=              0.0000  Tot=              0.0000
 Quadrupole moment (field-independent basis, Debye-Ang):
   XX=            -24.9453   YY=            -24.9453   ZZ=           -133.1123
   XY=              0.0000   XZ=              0.0000   YZ=              0.0000

 Normal termination of Gaussian 16 at Sun Jan  1 00:40:05 2023.
