 Gaussian 16, Revision A.03,
 Gaussian 16:  ES64L-G16RevA.03 25-Dec-2016

 -------------------------------------
 #p CCSD(T)/cc-pVTZ Guess=Read SCF=XQC
 -------------------------------------

 ---------
 O2_O2_208
 ---------
 Symbolic Z-matrix:
 Charge = -2 Multiplicity = 3

                         Standard orientation:
 ---------------------------------------------------------------------
 Center     Atomic      Atomic             Coordinates (Angstroms)
 Number     Number       Type             X           Y           Z
 ---------------------------------------------------------------------
      1          8           0        0.000000    0.000000    2.265068
      2          8           0        0.000000    0.000000    3.617448
      3          8           0        0.000000    0.000000   -3.617448
      4          8           0        0.000000    0.000000   -2.265068
 ---------------------------------------------------------------------

 SCF Done:  E(UHF) =  -298.958173217     A.U. after   11 cycles
 E2 =    -0.1221005511D+01 EUMP2 =    -0.30017917872766D+03
 CCSD(T)
 CCSD(T)= -0.30012637071D+03

 The electronic state is 3-SGG.
 Alpha  occ. eigenvalues --  -20.22386 -20.22386 -20.20174 -20.20174  -1.07135
 Alpha  occ. eigenvalues --   -1.07134  -0.70726  -0.70717  -0.25674  -0.25674
 Alpha  occ. eigenvalues --   -0.25670  -0.25670  -0.20058  -0.19994  -0.04733
 Alpha  occ. eigenvalues --   -0.04733  -0.04724  -0.04724
 Alpha virt. eigenvalues --    0.71302   0.72795   1.11018   1.13050   1.13050
 Alpha virt. eigenvalues --    1.13129   1.13129   1.13221   1.16339   1.19151
 Alpha virt. eigenvalues --    1.21613   1.21613   1.21837   1.21837   1.35171

  Beta  occ. eigenvalues --  -20.18925 -20.18925 -20.17556 -20.17555  -0.99041
  Beta  occ. eigenvalues --   -0.99028  -0.59440  -0.59330  -0.17542  -0.17451
  Beta  occ. eigenvalues --   -0.11244  -0.11244  -0.10964  -0.10964   0.23828
  Beta  occ. eigenvalues --    0.23828
  Beta virt. eigenvalues --    0.33389   0.33389   0.74361   0.76110   1.13041
  Beta virt. eigenvalues --    1.14748   1.17109   1.17959   1.17959   1.18021
  Beta virt. eigenvalues --    1.18021   1.20279   1.26945   1.26945   1.27180

 Mulliken charges and spin densities:
               1          2
     1  O   -0.431180   0.590100
     2  O   -0.568820   0.409900
     3  O   -0.568820   0.409900
     4  O   -0.431180   0.590100
 Sum of Mulliken charges =  -2.00000   2.00000

 Dipole moment (field-independent basis, Debye):
    X=             -0.0000    Y=             -0.0000    Z=              0.0000  Tot=              0.0000
 Quadrupole moment (field-independent basis, Debye-Ang):
   XX=            -24.9496   YY=            -24.9496   ZZ=           -119.3917
   XY=              0.0000   XZ=              0.0000   YZ=              0.0000

 Normal termination of Gaussian 16 at Sat Dec 31 23:58:44 2022.
