 Gaussian 16, Revision A.03,
 Gaussian 16:  ES64L-G16RevA.03 25-Dec-2016

 -------------------------------------
 #p CCSD(T)/cc-pVTZ Guess=Read SCF=XQC
 -------------------------------------

 --------
 O2_O2_99
 --------
 Symbolic Z-matrix:
 Charge = -2 Multiplicity = 3

                         Standard orientation:
 ---------------------------------------------------------------------
 Center     Atomic      Atomic             Coordinates (Angstroms)
 Number     Number       Type             X           Y           Z
 ---------------------------------------------------------------------
      1          8           0        0.000000    0.000000    1.493425
      2          8           0        0.000000    0.000000    2.845806
      3          8           0        0.000000    0.000000   -2.845806
      4          8           0        0.000000    0.000000   -1.493425
 ---------------------------------------------------------------------

 SCF Done:  E(UHF) =  -298.955314509     A.U. after   11 cycles
 E2 =    -0.1119810816D+01 EUMP2 =    -0.30007512532576D+03
 CCSD(T)
 CCSD(T)= -0.30008668844D+03

 The electronic state is 3-SGG.
 Alpha  occ. eigenvalues --  -20.20818 -20.20818 -20.15925 -20.15925  -1.04476
 Alpha  occ. eigenvalues --   -1.04383  -0.67857  -0.67382  -0.23143  -0.23143
 Alpha  occ. eigenvalues --   -0.22925  -0.22925  -0.17697  -0.16123  -0.01772
 Alpha  occ. eigenvalues --   -0.01772  -0.01442  -0.01442
 Alpha virt. eigenvalues --    0.72592   0.79338   1.10519   1.14025   1.14025
 Alpha virt. eigenvalues --    1.15626   1.17022   1.17022   1.17580   1.22124
 Alpha virt. eigenvalues --    1.22124   1.29034   1.29034   1.37635   1.38065

  Beta  occ. eigenvalues --  -20.16833 -20.16831 -20.13738 -20.13738  -0.96118
  Beta  occ. eigenvalues --   -0.95965  -0.56760  -0.55737  -0.15268  -0.13339
  Beta  occ. eigenvalues --   -0.08662  -0.08662  -0.07772  -0.07772   0.24488
  Beta  occ. eigenvalues --    0.24488
  Beta virt. eigenvalues --    0.39399   0.39399   0.75504   0.83162   1.12578
  Beta virt. eigenvalues --    1.16722   1.18444   1.19664   1.19664   1.21465
  Beta virt. eigenvalues --    1.21465   1.26987   1.26987   1.34794   1.34794

 Mulliken charges and spin densities:
               1          2
     1  O   -0.368997   0.679095
     2  O   -0.631003   0.320905
     3  O   -0.631003   0.320905
     4  O   -0.368997   0.679095
 Sum of Mulliken charges =  -2.00000   2.00000

 Dipole moment (field-independent basis, Debye):
    X=             -0.0000    Y=             -0.0000    Z=              0.0000  Tot=              0.0000
 Quadrupole moment (field-independent basis, Debye-Ang):
   XX=            -25.0190   YY=            -25.0190   ZZ=            -83.5521
   XY=              0.0000   XZ=              0.0000   YZ=              0.0000

 Normal termination of Gaussian 16 at Sat Dec 31 21:43:16 2022.
