 Gaussian 16, Revision A.03,
 Gaussian 16:  ES64L-G16RevA.03 25-Dec-2016

 -------------------------------------
 #p CCSD(T)/cc-pVTZ Guess=Read SCF=XQC
 -------------------------------------

 ---------
 O2_O2_255
 ---------
 Symbolic Z-matrix:
 Charge = -2 Multiplicity = 3

                         Standard orientation:
 ---------------------------------------------------------------------
 Center     Atomic      Atomic             Coordinates (Angstroms)
 Number     Number       Type             X           Y           Z
 ---------------------------------------------------------------------
      1          8           0        0.000000    0.000000    2.597795
      2          8           0        0.000000    0.000000    3.950175
      3          8           0        0.000000    0.000000   -3.950175
      4          8           0        0.000000    0.000000   -2.597795
 ---------------------------------------------------------------------

 SCF Done:  E(UHF) =  -298.962081590     A.U. after   11 cycles
 E2 =    -0.1257984642D+01 EUMP2 =    -0.30022006623256D+03
 CCSD(T)
 CCSD(T)= -0.30013819892D+03

 The electronic state is 3-SGG.
 Alpha  occ. eigenvalues --  -20.23096 -20.23096 -20.21328 -20.21328  -1.08038
 Alpha  occ. eigenvalues --   -1.08038  -0.71673  -0.71672  -0.26568  -0.26568
 Alpha  occ. eigenvalues --   -0.26568  -0.26568  -0.20985  -0.20975  -0.05678
 Alpha  occ. eigenvalues --   -0.05678  -0.05676  -0.05676
 Alpha virt. eigenvalues --    0.70927   0.71208   1.11170   1.11589   1.12186
 Alpha virt. eigenvalues --    1.12186   1.12195   1.12195   1.16139   1.16535
 Alpha virt. eigenvalues --    1.20779   1.20779   1.20803   1.20803   1.34284

  Beta  occ. eigenvalues --  -20.19717 -20.19717 -20.18626 -20.18626  -0.99957
  Beta  occ. eigenvalues --   -0.99950  -0.60360  -0.60294  -0.18466  -0.18446
  Beta  occ. eigenvalues --   -0.12101  -0.12101  -0.11903  -0.11903   0.23430
  Beta  occ. eigenvalues --    0.23430
  Beta virt. eigenvalues --    0.31883   0.31883   0.74087   0.74416   1.13045
  Beta virt. eigenvalues --    1.13387   1.17003   1.17101   1.17101   1.17109
  Beta virt. eigenvalues --    1.17109   1.17468   1.26103   1.26103   1.26129

 Mulliken charges and spin densities:
               1          2
     1  O   -0.444490   0.572518
     2  O   -0.555510   0.427482
     3  O   -0.555510   0.427482
     4  O   -0.444490   0.572518
 Sum of Mulliken charges =  -2.00000   2.00000

 Dipole moment (field-independent basis, Debye):
    X=             -0.0000    Y=             -0.0000    Z=             -0.0000  Tot=              0.0000
 Quadrupole moment (field-independent basis, Debye-Ang):
   XX=            -24.9442   YY=            -24.9442   ZZ=           -138.6686
   XY=              0.0000   XZ=              0.0000   YZ=              0.0000

 Normal termination of Gaussian 16 at Sun Jan  1 00:56:10 2023.
