 Gaussian 16, Revision A.03,
 Gaussian 16:  ES64L-G16RevA.03 25-Dec-2016

 -------------------------------------
 #p CCSD(T)/cc-pVTZ Guess=Read SCF=XQC
 -------------------------------------

 ---------
 O2_O2_188
 ---------
 Symbolic Z-matrix:
 Charge = -2 Multiplicity = 3

                         Standard orientation:
 ---------------------------------------------------------------------
 Center     Atomic      Atomic             Coordinates (Angstroms)
 Number     Number       Type             X           Y           Z
 ---------------------------------------------------------------------
      1          8           0        0.000000    0.000000    2.123482
      2          8           0        0.000000    0.000000    3.475862
      3          8           0        0.000000    0.000000   -3.475862
      4          8           0        0.000000    0.000000   -2.123482
 ---------------------------------------------------------------------

 SCF Done:  E(UHF) =  -298.956529879     A.U. after   11 cycles
 E2 =    -0.1204620465D+01 EUMP2 =    -0.30016115034418D+03
 CCSD(T)
 CCSD(T)= -0.30012052742D+03

 The electronic state is 3-SGG.
 Alpha  occ. eigenvalues --  -20.22062 -20.22062 -20.19591 -20.19591  -1.06699
 Alpha  occ. eigenvalues --   -1.06697  -0.70265  -0.70244  -0.25245  -0.25245
 Alpha  occ. eigenvalues --   -0.25235  -0.25235  -0.19620  -0.19494  -0.04272
 Alpha  occ. eigenvalues --   -0.04272  -0.04252  -0.04252
 Alpha virt. eigenvalues --    0.71206   0.73784   1.10203   1.13436   1.13436
 Alpha virt. eigenvalues --    1.13617   1.13617   1.13983   1.16236   1.21773
 Alpha virt. eigenvalues --    1.21934   1.21934   1.22440   1.22440   1.35596

  Beta  occ. eigenvalues --  -20.18552 -20.18552 -20.17020 -20.17020  -0.98594
  Beta  occ. eigenvalues --   -0.98575  -0.58994  -0.58847  -0.17108  -0.16939
  Beta  occ. eigenvalues --   -0.10832  -0.10832  -0.10500  -0.10500   0.24006
  Beta  occ. eigenvalues --    0.24006
  Beta virt. eigenvalues --    0.34158   0.34158   0.74167   0.77188   1.12335
  Beta virt. eigenvalues --    1.15341   1.16965   1.18353   1.18353   1.18489
  Beta virt. eigenvalues --    1.18489   1.23007   1.27265   1.27265   1.27801

 Mulliken charges and spin densities:
               1          2
     1  O   -0.423980   0.599928
     2  O   -0.576020   0.400072
     3  O   -0.576020   0.400072
     4  O   -0.423980   0.599928
 Sum of Mulliken charges =  -2.00000   2.00000

 Dipole moment (field-independent basis, Debye):
    X=             -0.0000    Y=             -0.0000    Z=              0.0000  Tot=              0.0000
 Quadrupole moment (field-independent basis, Debye-Ang):
   XX=            -24.9538   YY=            -24.9538   ZZ=           -111.8724
   XY=              0.0000   XZ=              0.0000   YZ=              0.0000

 Normal termination of Gaussian 16 at Sat Dec 31 23:33:27 2022.
