 Gaussian 16, Revision A.03,
 Gaussian 16:  ES64L-G16RevA.03 25-Dec-2016

 -------------------------------------
 #p CCSD(T)/cc-pVTZ Guess=Read SCF=XQC
 -------------------------------------

 ---------
 O2_O2_159
 ---------
 Symbolic Z-matrix:
 Charge = -2 Multiplicity = 3

                         Standard orientation:
 ---------------------------------------------------------------------
 Center     Atomic      Atomic             Coordinates (Angstroms)
 Number     Number       Type             X           Y           Z
 ---------------------------------------------------------------------
      1          8           0        0.000000    0.000000    1.918183
      2          8           0        0.000000    0.000000    3.270563
      3          8           0        0.000000    0.000000   -3.270563
      4          8           0        0.000000    0.000000   -1.918183
 ---------------------------------------------------------------------

 SCF Done:  E(UHF) =  -298.954536217     A.U. after   11 cycles
 E2 =    -0.1179640363D+01 EUMP2 =    -0.30013417657993D+03
 CCSD(T)
 CCSD(T)= -0.30011102900D+03

 The electronic state is 3-SGG.
 Alpha  occ. eigenvalues --  -20.21594 -20.21594 -20.18621 -20.18621  -1.06015
 Alpha  occ. eigenvalues --   -1.06007  -0.69534  -0.69474  -0.24578  -0.24578
 Alpha  occ. eigenvalues --   -0.24550  -0.24550  -0.18954  -0.18650  -0.03541
 Alpha  occ. eigenvalues --   -0.03541  -0.03485  -0.03485
 Alpha virt. eigenvalues --    0.70857   0.75506   1.08156   1.13949   1.13949
 Alpha virt. eigenvalues --    1.14479   1.14479   1.14848   1.16277   1.22234
 Alpha virt. eigenvalues --    1.22234   1.23677   1.23677   1.28627   1.36268

  Beta  occ. eigenvalues --  -20.17989 -20.17988 -20.16136 -20.16136  -0.97877
  Beta  occ. eigenvalues --   -0.97844  -0.58292  -0.58043  -0.16452  -0.16059
  Beta  occ. eigenvalues --   -0.10182  -0.10182  -0.09745  -0.09745   0.24251
  Beta  occ. eigenvalues --    0.24251
  Beta virt. eigenvalues --    0.35467   0.35467   0.73635   0.79070   1.10414
  Beta virt. eigenvalues --    1.16035   1.17024   1.18917   1.18917   1.19290
  Beta virt. eigenvalues --    1.19290   1.27542   1.27542   1.29092   1.29092

 Mulliken charges and spin densities:
               1          2
     1  O   -0.411128   0.618017
     2  O   -0.588872   0.381983
     3  O   -0.588872   0.381983
     4  O   -0.411128   0.618017
 Sum of Mulliken charges =  -2.00000   2.00000

 Dipole moment (field-independent basis, Debye):
    X=             -0.0000    Y=              0.0000    Z=             -0.0000  Tot=              0.0000
 Quadrupole moment (field-independent basis, Debye-Ang):
   XX=            -24.9644   YY=            -24.9644   ZZ=           -101.7070
   XY=              0.0000   XZ=              0.0000   YZ=              0.0000

 Normal termination of Gaussian 16 at Sat Dec 31 22:57:46 2022.
