 Gaussian 16, Revision A.03,
 Gaussian 16:  ES64L-G16RevA.03 25-Dec-2016

 -------------------------------------
 #p CCSD(T)/cc-pVTZ Guess=Read SCF=XQC
 -------------------------------------

 -------
 O2_O2_7
 -------
 Symbolic Z-matrix:
 Charge = -2 Multiplicity = 3

                         Standard orientation:
 ---------------------------------------------------------------------
 Center     Atomic      Atomic             Coordinates (Angstroms)
 Number     Number       Type             X           Y           Z
 ---------------------------------------------------------------------
      1          8           0        0.000000    0.000000    0.842130
      2          8           0        0.000000    0.000000    2.194511
      3          8           0        0.000000    0.000000   -2.194511
      4          8           0        0.000000    0.000000   -0.842130
 ---------------------------------------------------------------------

 SCF Done:  E(UHF) =  -298.933718623     A.U. after   12 cycles
 E2 =    -0.1022797637D+01 EUMP2 =    -0.29995651626039D+03
 CCSD(T)
 CCSD(T)= -0.29999408813D+03

 The electronic state is 3-SGG.
 Alpha  occ. eigenvalues --  -20.19358 -20.19357 -20.07650 -20.07650  -1.04214
 Alpha  occ. eigenvalues --   -0.99586  -0.69137  -0.58289  -0.23371  -0.23371
 Alpha  occ. eigenvalues --   -0.20677  -0.17960  -0.17960  -0.01528   0.02197
 Alpha  occ. eigenvalues --    0.02197   0.05513   0.05513
 Alpha virt. eigenvalues --    0.78641   0.88877   1.16585   1.16585   1.17486
 Alpha virt. eigenvalues --    1.18174   1.22618   1.22618   1.27455   1.27455
 Alpha virt. eigenvalues --    1.38228   1.38726   1.42221   1.42221   1.52232

  Beta  occ. eigenvalues --  -20.14293 -20.14279 -20.06382 -20.06382  -0.94056
  Beta  occ. eigenvalues --   -0.90514  -0.61565  -0.45839  -0.17699  -0.07023
  Beta  occ. eigenvalues --   -0.07023  -0.02301  -0.02301   0.02503   0.20419
  Beta  occ. eigenvalues --    0.20419
  Beta virt. eigenvalues --    0.53569   0.53569   0.82677   0.92601   1.18221
  Beta virt. eigenvalues --    1.19631   1.23603   1.23603   1.25923   1.25923
  Beta virt. eigenvalues --    1.31979   1.31979   1.38802   1.39265   1.48448

 Mulliken charges and spin densities:
               1          2
     1  O   -0.194899   0.851508
     2  O   -0.805101   0.148492
     3  O   -0.805101   0.148492
     4  O   -0.194899   0.851508
 Sum of Mulliken charges =  -2.00000   2.00000

 Dipole moment (field-independent basis, Debye):
    X=             -0.0000    Y=              0.0000    Z=              0.0000  Tot=              0.0000
 Quadrupole moment (field-independent basis, Debye-Ang):
   XX=            -25.0543   YY=            -25.0543   ZZ=            -65.0036
   XY=              0.0000   XZ=              0.0000   YZ=              0.0000

 Normal termination of Gaussian 16 at Sat Dec 31 19:54:04 2022.
