 Gaussian 16, Revision A.03,
 Gaussian 16:  ES64L-G16RevA.03 25-Dec-2016

 -------------------------------------
 #p CCSD(T)/cc-pVTZ Guess=Read SCF=XQC
 -------------------------------------

 ---------
 O2_O2_257
 ---------
 Symbolic Z-matrix:
 Charge = -2 Multiplicity = 3

                         Standard orientation:
 ---------------------------------------------------------------------
 Center     Atomic      Atomic             Coordinates (Angstroms)
 Number     Number       Type             X           Y           Z
 ---------------------------------------------------------------------
      1          8           0        0.000000    0.000000    2.611954
      2          8           0        0.000000    0.000000    3.964334
      3          8           0        0.000000    0.000000   -3.964334
      4          8           0        0.000000    0.000000   -2.611954
 ---------------------------------------------------------------------

 SCF Done:  E(UHF) =  -298.962240295     A.U. after   11 cycles
 E2 =    -0.1259528617D+01 EUMP2 =    -0.30022176891149D+03
 CCSD(T)
 CCSD(T)= -0.30013865034D+03

 The electronic state is 3-SGG.
 Alpha  occ. eigenvalues --  -20.23124 -20.23124 -20.21372 -20.21372  -1.08073
 Alpha  occ. eigenvalues --   -1.08073  -0.71709  -0.71708  -0.26603  -0.26603
 Alpha  occ. eigenvalues --   -0.26602  -0.26602  -0.21021  -0.21012  -0.05714
 Alpha  occ. eigenvalues --   -0.05714  -0.05713  -0.05713
 Alpha virt. eigenvalues --    0.70900   0.71158   1.11150   1.11535   1.12152
 Alpha virt. eigenvalues --    1.12152   1.12160   1.12160   1.16115   1.16475
 Alpha virt. eigenvalues --    1.20744   1.20744   1.20766   1.20766   1.34249

  Beta  occ. eigenvalues --  -20.19748 -20.19748 -20.18667 -20.18666  -0.99993
  Beta  occ. eigenvalues --   -0.99986  -0.60395  -0.60330  -0.18502  -0.18483
  Beta  occ. eigenvalues --   -0.12135  -0.12135  -0.11939  -0.11939   0.23414
  Beta  occ. eigenvalues --    0.23414
  Beta virt. eigenvalues --    0.31827   0.31827   0.74061   0.74365   1.13023
  Beta virt. eigenvalues --    1.13339   1.16980   1.17067   1.17067   1.17075
  Beta virt. eigenvalues --    1.17075   1.17404   1.26068   1.26068   1.26092

 Mulliken charges and spin densities:
               1          2
     1  O   -0.444968   0.571895
     2  O   -0.555032   0.428105
     3  O   -0.555032   0.428105
     4  O   -0.444968   0.571895
 Sum of Mulliken charges =  -2.00000   2.00000

 Dipole moment (field-independent basis, Debye):
    X=             -0.0000    Y=              0.0000    Z=              0.0000  Tot=              0.0000
 Quadrupole moment (field-independent basis, Debye-Ang):
   XX=            -24.9441   YY=            -24.9441   ZZ=           -139.5386
   XY=              0.0000   XZ=              0.0000   YZ=              0.0000

 Normal termination of Gaussian 16 at Sun Jan  1 00:58:38 2023.
