 Gaussian 16, Revision A.03,
 Gaussian 16:  ES64L-G16RevA.03 25-Dec-2016

 -------------------------------------
 #p CCSD(T)/cc-pVTZ Guess=Read SCF=XQC
 -------------------------------------

 --------
 O2_O2_88
 --------
 Symbolic Z-matrix:
 Charge = -2 Multiplicity = 3

                         Standard orientation:
 ---------------------------------------------------------------------
 Center     Atomic      Atomic             Coordinates (Angstroms)
 Number     Number       Type             X           Y           Z
 ---------------------------------------------------------------------
      1          8           0        0.000000    0.000000    1.415553
      2          8           0        0.000000    0.000000    2.767933
      3          8           0        0.000000    0.000000   -2.767933
      4          8           0        0.000000    0.000000   -1.415553
 ---------------------------------------------------------------------

 SCF Done:  E(UHF) =  -298.956868748     A.U. after   12 cycles
 E2 =    -0.1107231354D+01 EUMP2 =    -0.30006410010279D+03
 CCSD(T)
 CCSD(T)= -0.30008146528D+03

 The electronic state is 3-SGG.
 Alpha  occ. eigenvalues --  -20.20723 -20.20723 -20.15286 -20.15286  -1.04195
 Alpha  occ. eigenvalues --   -1.04049  -0.67555  -0.66864  -0.22902  -0.22902
 Alpha  occ. eigenvalues --   -0.22586  -0.22586  -0.17556  -0.15446  -0.01401
 Alpha  occ. eigenvalues --   -0.01401  -0.00961  -0.00961
 Alpha virt. eigenvalues --    0.73426   0.80056   1.13185   1.13817   1.13817
 Alpha virt. eigenvalues --    1.15660   1.17582   1.17582   1.18033   1.22199
 Alpha virt. eigenvalues --    1.22199   1.30564   1.30564   1.37884   1.38419

  Beta  occ. eigenvalues --  -20.16629 -20.16626 -20.13179 -20.13179  -0.95755
  Beta  occ. eigenvalues --   -0.95543  -0.56530  -0.55146  -0.15155  -0.12599
  Beta  occ. eigenvalues --   -0.08367  -0.08367  -0.07329  -0.07329   0.24431
  Beta  occ. eigenvalues --    0.24431
  Beta virt. eigenvalues --    0.40410   0.40410   0.76488   0.83908   1.14947
  Beta virt. eigenvalues --    1.16763   1.19091   1.19720   1.19720   1.21914
  Beta virt. eigenvalues --    1.21914   1.26885   1.26885   1.36421   1.36421

 Mulliken charges and spin densities:
               1          2
     1  O   -0.357649   0.695332
     2  O   -0.642351   0.304668
     3  O   -0.642351   0.304668
     4  O   -0.357649   0.695332
 Sum of Mulliken charges =  -2.00000   2.00000

 Dipole moment (field-independent basis, Debye):
    X=             -0.0000    Y=              0.0000    Z=             -0.0000  Tot=              0.0000
 Quadrupole moment (field-independent basis, Debye-Ang):
   XX=            -25.0358   YY=            -25.0358   ZZ=            -80.6552
   XY=              0.0000   XZ=              0.0000   YZ=              0.0000

 Normal termination of Gaussian 16 at Sat Dec 31 21:29:42 2022.
