 Gaussian 16, Revision A.03,
 Gaussian 16:  ES64L-G16RevA.03 25-Dec-2016

 -------------------------------------
 #p CCSD(T)/cc-pVTZ Guess=Read SCF=XQC
 -------------------------------------

 ---------
 O2_O2_234
 ---------
 Symbolic Z-matrix:
 Charge = -2 Multiplicity = 3

                         Standard orientation:
 ---------------------------------------------------------------------
 Center     Atomic      Atomic             Coordinates (Angstroms)
 Number     Number       Type             X           Y           Z
 ---------------------------------------------------------------------
      1          8           0        0.000000    0.000000    2.449130
      2          8           0        0.000000    0.000000    3.801510
      3          8           0        0.000000    0.000000   -3.801510
      4          8           0        0.000000    0.000000   -2.449130
 ---------------------------------------------------------------------

 SCF Done:  E(UHF) =  -298.960367276     A.U. after   11 cycles
 E2 =    -0.1241653498D+01 EUMP2 =    -0.30020202077418D+03
 CCSD(T)
 CCSD(T)= -0.30013321521D+03

 The electronic state is 3-SGG.
 Alpha  occ. eigenvalues --  -20.22791 -20.22791 -20.20846 -20.20846  -1.07655
 Alpha  occ. eigenvalues --   -1.07655  -0.71273  -0.71270  -0.26189  -0.26189
 Alpha  occ. eigenvalues --   -0.26187  -0.26187  -0.20590  -0.20566  -0.05278
 Alpha  occ. eigenvalues --   -0.05278  -0.05275  -0.05275
 Alpha virt. eigenvalues --    0.71172   0.71803   1.11294   1.12235   1.12558
 Alpha virt. eigenvalues --    1.12558   1.12583   1.12583   1.16331   1.17337
 Alpha virt. eigenvalues --    1.21150   1.21150   1.21219   1.21219   1.34660

  Beta  occ. eigenvalues --  -20.19379 -20.19379 -20.18177 -20.18177  -0.99570
  Beta  occ. eigenvalues --   -0.99561  -0.59971  -0.59890  -0.18072  -0.18033
  Beta  occ. eigenvalues --   -0.11737  -0.11737  -0.11507  -0.11507   0.23603
  Beta  occ. eigenvalues --    0.23603
  Beta virt. eigenvalues --    0.32511   0.32511   0.74304   0.75044   1.13208
  Beta virt. eigenvalues --    1.13948   1.17167   1.17469   1.17469   1.17490
  Beta virt. eigenvalues --    1.17490   1.18331   1.26478   1.26478   1.26551

 Mulliken charges and spin densities:
               1          2
     1  O   -0.439072   0.579604
     2  O   -0.560928   0.420396
     3  O   -0.560928   0.420396
     4  O   -0.439072   0.579604
 Sum of Mulliken charges =  -2.00000   2.00000

 Dipole moment (field-independent basis, Debye):
    X=             -0.0000    Y=              0.0000    Z=             -0.0000  Tot=              0.0000
 Quadrupole moment (field-independent basis, Debye-Ang):
   XX=            -24.9461   YY=            -24.9461   ZZ=           -129.7782
   XY=              0.0000   XZ=              0.0000   YZ=              0.0000

 Normal termination of Gaussian 16 at Sun Jan  1 00:30:18 2023.
