 Gaussian 16, Revision A.03,
 Gaussian 16:  ES64L-G16RevA.03 25-Dec-2016

 -------------------------------------
 #p CCSD(T)/cc-pVTZ Guess=Read SCF=XQC
 -------------------------------------

 --------
 O2_O2_21
 --------
 Symbolic Z-matrix:
 Charge = -2 Multiplicity = 3

                         Standard orientation:
 ---------------------------------------------------------------------
 Center     Atomic      Atomic             Coordinates (Angstroms)
 Number     Number       Type             X           Y           Z
 ---------------------------------------------------------------------
      1          8           0        0.000000    0.000000    0.941240
      2          8           0        0.000000    0.000000    2.293621
      3          8           0        0.000000    0.000000   -2.293621
      4          8           0        0.000000    0.000000   -0.941240
 ---------------------------------------------------------------------

 SCF Done:  E(UHF) =  -298.959696180     A.U. after   12 cycles
 E2 =    -0.1030586697D+01 EUMP2 =    -0.29999028287752D+03
 CCSD(T)
 CCSD(T)= -0.30002900462D+03

 The electronic state is 3-SGG.
 Alpha  occ. eigenvalues --  -20.19768 -20.19766 -20.09577 -20.09576  -1.03320
 Alpha  occ. eigenvalues --   -1.00880  -0.67594  -0.60838  -0.22497  -0.22497
 Alpha  occ. eigenvalues --   -0.19297  -0.19297  -0.19277  -0.06280   0.01436
 Alpha  occ. eigenvalues --    0.01436   0.03783   0.03783
 Alpha virt. eigenvalues --    0.78052   0.86305   1.15486   1.15486   1.16847
 Alpha virt. eigenvalues --    1.18337   1.21529   1.21529   1.25740   1.25740
 Alpha virt. eigenvalues --    1.38609   1.38823   1.40595   1.40595   1.47096

  Beta  occ. eigenvalues --  -20.14837 -20.14828 -20.08154 -20.08154  -0.93753
  Beta  occ. eigenvalues --   -0.91773  -0.58670  -0.48463  -0.16736  -0.06867
  Beta  occ. eigenvalues --   -0.06867  -0.03559  -0.03559  -0.02627   0.21899
  Beta  occ. eigenvalues --    0.21899
  Beta virt. eigenvalues --    0.50346   0.50346   0.82021   0.90165   1.18457
  Beta virt. eigenvalues --    1.18554   1.22695   1.22695   1.25011   1.25011
  Beta virt. eigenvalues --    1.30081   1.30081   1.39032   1.39727   1.46798

 Mulliken charges and spin densities:
               1          2
     1  O   -0.239330   0.826839
     2  O   -0.760670   0.173161
     3  O   -0.760670   0.173161
     4  O   -0.239330   0.826839
 Sum of Mulliken charges =  -2.00000   2.00000

 Dipole moment (field-independent basis, Debye):
    X=             -0.0000    Y=             -0.0000    Z=              0.0000  Tot=              0.0000
 Quadrupole moment (field-independent basis, Debye-Ang):
   XX=            -25.1094   YY=            -25.1094   ZZ=            -66.6461
   XY=              0.0000   XZ=              0.0000   YZ=              0.0000

 Normal termination of Gaussian 16 at Sat Dec 31 20:10:01 2022.
