 Gaussian 16, Revision A.03,
 Gaussian 16:  ES64L-G16RevA.03 25-Dec-2016

 ---------------------------------------------------------------
 #p ROCCSD(T)/cc-pVTZ Guess=Read SCF=(VeryTight,CDIIS,VShift=10)
 ---------------------------------------------------------------

 ---------
 O2_O2_272
 ---------
 Symbolic Z-matrix:
 Charge = -1 Multiplicity = 6

                         Standard orientation:
 ---------------------------------------------------------------------
 Center     Atomic      Atomic             Coordinates (Angstroms)
 Number     Number       Type             X           Y           Z
 ---------------------------------------------------------------------
      1          8           0        0.000000    0.000000    2.718142
      2          8           0        0.000000    0.000000    4.070523
      3          8           0        0.000000    0.000000   -4.070523
      4          8           0        0.000000    0.000000   -2.718142
 ---------------------------------------------------------------------

 SCF Done:  E(ROHF) =  -298.982623719     A.U. after   14 cycles
 E2 =    -0.1078546279D+01 EUMP2 =    -0.30006116999833D+03
 CCSD(T)
 CCSD(T)= -0.30003073617D+03

 The electronic state is 6-SGG.
 Alpha  occ. eigenvalues --  -20.50606 -20.50606 -20.48761 -20.48760  -1.36921
 Alpha  occ. eigenvalues --   -1.36920  -1.01020  -1.00841  -0.53069  -0.53069
 Alpha  occ. eigenvalues --   -0.53069  -0.53069  -0.52365  -0.52167  -0.33179
 Alpha  occ. eigenvalues --   -0.33179  -0.33179  -0.33179   0.19309
 Alpha virt. eigenvalues --    0.27374   0.84819   0.85145   0.89474   0.89474
 Alpha virt. eigenvalues --    0.89481   0.89481   0.94026   0.94366   0.98756
 Alpha virt. eigenvalues --    0.98756   0.98779   0.98779   1.09816   1.09818

 Mulliken charges and spin densities:
               1          2
     1  O   -0.204347   1.303094
     2  O   -0.295653   1.196906
     3  O   -0.295653   1.196906
     4  O   -0.204347   1.303094
 Sum of Mulliken charges =  -1.00000   5.00000

 Dipole moment (field-independent basis, Debye):
    X=             -0.0000    Y=              0.0000    Z=              0.0000  Tot=              0.0000
 Quadrupole moment (field-independent basis, Debye-Ang):
   XX=            -22.1627   YY=            -22.1627   ZZ=            -86.9821
   XY=             -0.0000   XZ=              0.0000   YZ=             -0.0000

 Q=-299.990801\CCSD=-299.9784684\CCSD(T)=-300.0307362\RMSD=6.495e-09\PG
 Normal termination of Gaussian 16 at Mon Jan 16 04:56:27 2023.
