 Gaussian 16, Revision A.03,
 Gaussian 16:  ES64L-G16RevA.03 25-Dec-2016

 ---------------------------------------------------------------
 #p ROCCSD(T)/cc-pVTZ Guess=Read SCF=(VeryTight,CDIIS,VShift=10)
 ---------------------------------------------------------------

 ---------
 O2_O2_151
 ---------
 Symbolic Z-matrix:
 Charge = -1 Multiplicity = 6

                         Standard orientation:
 ---------------------------------------------------------------------
 Center     Atomic      Atomic             Coordinates (Angstroms)
 Number     Number       Type             X           Y           Z
 ---------------------------------------------------------------------
      1          8           0        0.000000    0.000000    1.861548
      2          8           0        0.000000    0.000000    3.213929
      3          8           0        0.000000    0.000000   -3.213929
      4          8           0        0.000000    0.000000   -1.861548
 ---------------------------------------------------------------------

 SCF Done:  E(ROHF) =  -298.997989586     A.U. after   14 cycles
 E2 =    -0.1074865082D+01 EUMP2 =    -0.30007285466800D+03
 CCSD(T)
 CCSD(T)= -0.30004521971D+03

 The electronic state is 6-SGG.
 Alpha  occ. eigenvalues --  -20.50978 -20.50976 -20.47318 -20.47318  -1.36081
 Alpha  occ. eigenvalues --   -1.36070  -1.00020  -0.99768  -0.52385  -0.52385
 Alpha  occ. eigenvalues --   -0.52354  -0.52354  -0.51230  -0.50364  -0.32268
 Alpha  occ. eigenvalues --   -0.32268  -0.32214  -0.32214   0.18098
 Alpha virt. eigenvalues --    0.32501   0.78917   0.89726   0.90082   0.90082
 Alpha virt. eigenvalues --    0.90862   0.90862   0.92518   0.99090   0.99090
 Alpha virt. eigenvalues --    1.00918   1.00918   1.07127   1.10773   1.10852

 Mulliken charges and spin densities:
               1          2
     1  O   -0.175159   1.349383
     2  O   -0.324841   1.150617
     3  O   -0.324841   1.150617
     4  O   -0.175159   1.349383
 Sum of Mulliken charges =  -1.00000   5.00000

 Dipole moment (field-independent basis, Debye):
    X=             -0.0000    Y=             -0.0000    Z=             -0.0000  Tot=              0.0000
 Quadrupole moment (field-independent basis, Debye-Ang):
   XX=            -22.1922   YY=            -22.1922   ZZ=            -62.5808
   XY=             -0.0000   XZ=              0.0000   YZ=             -0.0000

 47\MP4SDQ=-300.0066001\CCSD=-299.9931442\CCSD(T)=-300.0452197\RMSD=1.5
 Normal termination of Gaussian 16 at Sun Jan 15 05:40:57 2023.
