 Gaussian 16, Revision A.03,
 Gaussian 16:  ES64L-G16RevA.03 25-Dec-2016

 ---------------------------------------------------------------
 #p ROCCSD(T)/cc-pVTZ Guess=Read SCF=(VeryTight,CDIIS,VShift=10)
 ---------------------------------------------------------------

 --------
 O2_O2_26
 --------
 Symbolic Z-matrix:
 Charge = -1 Multiplicity = 6

                         Standard orientation:
 ---------------------------------------------------------------------
 Center     Atomic      Atomic             Coordinates (Angstroms)
 Number     Number       Type             X           Y           Z
 ---------------------------------------------------------------------
      1          8           0        0.000000    0.000000    0.976637
      2          8           0        0.000000    0.000000    2.329017
      3          8           0        0.000000    0.000000   -2.329017
      4          8           0        0.000000    0.000000   -0.976637
 ---------------------------------------------------------------------

 SCF Done:  E(ROHF) =  -298.982935388     A.U. after   14 cycles
 E2 =    -0.1080507332D+01 EUMP2 =    -0.30006344271957D+03
 CCSD(T)
 CCSD(T)= -0.30003738391D+03

 The electronic state is 6-SGG.
 Alpha  occ. eigenvalues --  -20.44198 -20.44192 -20.43771 -20.43771  -1.32870
 Alpha  occ. eigenvalues --   -1.31538  -0.99798  -0.93684  -0.53381  -0.48972
 Alpha  occ. eigenvalues --   -0.48972  -0.47241  -0.47241  -0.41102  -0.29802
 Alpha  occ. eigenvalues --   -0.29802  -0.26596  -0.26596   0.15041
 Alpha virt. eigenvalues --    0.45508   0.86702   0.89735   0.91195   0.91195
 Alpha virt. eigenvalues --    0.94864   0.94864   0.98755   0.98755   1.12324
 Alpha virt. eigenvalues --    1.12614   1.16497   1.16497   1.19209   1.64589

 Mulliken charges and spin densities:
               1          2
     1  O   -0.176068   1.199219
     2  O   -0.323932   1.300781
     3  O   -0.323932   1.300781
     4  O   -0.176068   1.199219
 Sum of Mulliken charges =  -1.00000   5.00000

 Dipole moment (field-independent basis, Debye):
    X=             -0.0000    Y=             -0.0000    Z=             -0.0000  Tot=              0.0000
 Quadrupole moment (field-independent basis, Debye-Ang):
   XX=            -22.1648   YY=            -22.1648   ZZ=            -44.2755
   XY=             -0.0000   XZ=              0.0000   YZ=             -0.0000

 7\MP4SDQ=-299.9971787\CCSD=-299.983655\CCSD(T)=-300.0373839\RMSD=2.447
 Normal termination of Gaussian 16 at Sun Jan 15 00:15:38 2023.
