 Gaussian 16, Revision A.03,
 Gaussian 16:  ES64L-G16RevA.03 25-Dec-2016

 ---------------------------------------------------------------
 #p ROCCSD(T)/cc-pVTZ Guess=Read SCF=(VeryTight,CDIIS,VShift=10)
 ---------------------------------------------------------------

 ---------
 O2_O2_173
 ---------
 Symbolic Z-matrix:
 Charge = -1 Multiplicity = 6

                         Standard orientation:
 ---------------------------------------------------------------------
 Center     Atomic      Atomic             Coordinates (Angstroms)
 Number     Number       Type             X           Y           Z
 ---------------------------------------------------------------------
      1          8           0        0.000000    0.000000    2.017293
      2          8           0        0.000000    0.000000    3.369673
      3          8           0        0.000000    0.000000   -3.369673
      4          8           0        0.000000    0.000000   -2.017293
 ---------------------------------------------------------------------

 SCF Done:  E(ROHF) =  -298.992182965     A.U. after   12 cycles
 E2 =    -0.1075918131D+01 EUMP2 =    -0.30006810109596D+03
 CCSD(T)
 CCSD(T)= -0.30003970356D+03

 The electronic state is 6-SGG.
 Alpha  occ. eigenvalues --  -20.50706 -20.50705 -20.47636 -20.47636  -1.36215
 Alpha  occ. eigenvalues --   -1.36210  -1.00209  -0.99995  -0.52462  -0.52462
 Alpha  occ. eigenvalues --   -0.52447  -0.52447  -0.51465  -0.50864  -0.32425
 Alpha  occ. eigenvalues --   -0.32425  -0.32399  -0.32399   0.18574
 Alpha virt. eigenvalues --    0.30964   0.81048   0.89090   0.90108   0.90108
 Alpha virt. eigenvalues --    0.90474   0.90474   0.92973   0.99265   0.99265
 Alpha virt. eigenvalues --    1.00148   1.00148   1.01038   1.10600   1.10637

 Mulliken charges and spin densities:
               1          2
     1  O   -0.182686   1.334081
     2  O   -0.317314   1.165919
     3  O   -0.317314   1.165919
     4  O   -0.182686   1.334081
 Sum of Mulliken charges =  -1.00000   5.00000

 Dipole moment (field-independent basis, Debye):
    X=             -0.0000    Y=              0.0000    Z=             -0.0000  Tot=              0.0000
 Quadrupole moment (field-independent basis, Debye-Ang):
   XX=            -22.1832   YY=            -22.1832   ZZ=            -66.6640
   XY=             -0.0000   XZ=              0.0000   YZ=             -0.0000

 MP4SDQ=-300.0006236\CCSD=-299.9875797\CCSD(T)=-300.0397036\RMSD=6.048e
 Normal termination of Gaussian 16 at Sun Jan 15 06:40:49 2023.
