 Gaussian 16, Revision A.03,
 Gaussian 16:  ES64L-G16RevA.03 25-Dec-2016

 ---------------------------------------------------------------
 #p ROCCSD(T)/cc-pVTZ Guess=Read SCF=(VeryTight,CDIIS,VShift=10)
 ---------------------------------------------------------------

 ---------
 O2_O2_265
 ---------
 Symbolic Z-matrix:
 Charge = -1 Multiplicity = 6

                         Standard orientation:
 ---------------------------------------------------------------------
 Center     Atomic      Atomic             Coordinates (Angstroms)
 Number     Number       Type             X           Y           Z
 ---------------------------------------------------------------------
      1          8           0        0.000000    0.000000    2.668588
      2          8           0        0.000000    0.000000    4.020968
      3          8           0        0.000000    0.000000   -4.020968
      4          8           0        0.000000    0.000000   -2.668588
 ---------------------------------------------------------------------

 SCF Done:  E(ROHF) =  -298.982750056     A.U. after   10 cycles
 E2 =    -0.1078436102D+01 EUMP2 =    -0.30006118615840D+03
 CCSD(T)
 CCSD(T)= -0.30003085805D+03

 The electronic state is 6-SGG.
 Alpha  occ. eigenvalues --  -20.50579 -20.50579 -20.48680 -20.48680  -1.36866
 Alpha  occ. eigenvalues --   -1.36865  -1.00962  -1.00782  -0.53017  -0.53017
 Alpha  occ. eigenvalues --   -0.53017  -0.53017  -0.52309  -0.52100  -0.33121
 Alpha  occ. eigenvalues --   -0.33121  -0.33120  -0.33120   0.19298
 Alpha virt. eigenvalues --    0.27519   0.84831   0.85270   0.89529   0.89529
 Alpha virt. eigenvalues --    0.89537   0.89537   0.94058   0.94466   0.98812
 Alpha virt. eigenvalues --    0.98812   0.98840   0.98840   1.09871   1.09874

 Mulliken charges and spin densities:
               1          2
     1  O   -0.203075   1.304566
     2  O   -0.296925   1.195434
     3  O   -0.296925   1.195434
     4  O   -0.203075   1.304566
 Sum of Mulliken charges =  -1.00000   5.00000

 Dipole moment (field-independent basis, Debye):
    X=             -0.0000    Y=              0.0000    Z=             -0.0000  Tot=              0.0000
 Quadrupole moment (field-independent basis, Debye-Ang):
   XX=            -22.1631   YY=            -22.1631   ZZ=            -85.4251
   XY=             -0.0000   XZ=              0.0000   YZ=             -0.0000

 P4SDQ=-299.9909383\CCSD=-299.9785922\CCSD(T)=-300.030858\RMSD=8.624e-0
 Normal termination of Gaussian 16 at Mon Jan 16 04:48:07 2023.
