 Gaussian 16, Revision A.03,
 Gaussian 16:  ES64L-G16RevA.03 25-Dec-2016

 ---------------------------------------------------------------
 #p ROCCSD(T)/cc-pVTZ Guess=Read SCF=(VeryTight,CDIIS,VShift=10)
 ---------------------------------------------------------------

 --------
 O2_O2_51
 --------
 Symbolic Z-matrix:
 Charge = -1 Multiplicity = 6

                         Standard orientation:
 ---------------------------------------------------------------------
 Center     Atomic      Atomic             Coordinates (Angstroms)
 Number     Number       Type             X           Y           Z
 ---------------------------------------------------------------------
      1          8           0        0.000000    0.000000    1.153620
      2          8           0        0.000000    0.000000    2.506000
      3          8           0        0.000000    0.000000   -2.506000
      4          8           0        0.000000    0.000000   -1.153620
 ---------------------------------------------------------------------

 SCF Done:  E(ROHF) =  -299.003748918     A.U. after   14 cycles
 E2 =    -0.1078554912D+01 EUMP2 =    -0.30008230382970D+03
 CCSD(T)
 CCSD(T)= -0.30005475755D+03

 The electronic state is 6-SGG.
 Alpha  occ. eigenvalues --  -20.47569 -20.47566 -20.44172 -20.44172  -1.33664
 Alpha  occ. eigenvalues --   -1.33136  -0.98759  -0.96119  -0.51694  -0.49891
 Alpha  occ. eigenvalues --   -0.49891  -0.49013  -0.49013  -0.44934  -0.30095
 Alpha  occ. eigenvalues --   -0.30095  -0.28816  -0.28816   0.15898
 Alpha virt. eigenvalues --    0.40677   0.88047   0.89076   0.89076   0.91254
 Alpha virt. eigenvalues --    0.94314   0.94314   0.98051   0.98051   1.02196
 Alpha virt. eigenvalues --    1.12302   1.12302   1.12311   1.13333   1.55819

 Mulliken charges and spin densities:
               1          2
     1  O   -0.150090   1.305599
     2  O   -0.349910   1.194401
     3  O   -0.349910   1.194401
     4  O   -0.150090   1.305599
 Sum of Mulliken charges =  -1.00000   5.00000

 Dipole moment (field-independent basis, Debye):
    X=             -0.0000    Y=             -0.0000    Z=              0.0000  Tot=              0.0000
 Quadrupole moment (field-independent basis, Debye-Ang):
   XX=            -22.1957   YY=            -22.1957   ZZ=            -48.1177
   XY=             -0.0000   XZ=              0.0000   YZ=             -0.0000

 8\MP4SDQ=-300.0156515\CCSD=-300.001742\CCSD(T)=-300.0547575\RMSD=5.391
 Normal termination of Gaussian 16 at Sun Jan 15 01:20:09 2023.
