 Gaussian 16, Revision A.03,
 Gaussian 16:  ES64L-G16RevA.03 25-Dec-2016

 ---------------------------------------------------------------
 #p ROCCSD(T)/cc-pVTZ Guess=Read SCF=(VeryTight,CDIIS,VShift=10)
 ---------------------------------------------------------------

 ---------
 O2_O2_177
 ---------
 Symbolic Z-matrix:
 Charge = -1 Multiplicity = 6

                         Standard orientation:
 ---------------------------------------------------------------------
 Center     Atomic      Atomic             Coordinates (Angstroms)
 Number     Number       Type             X           Y           Z
 ---------------------------------------------------------------------
      1          8           0        0.000000    0.000000    2.045610
      2          8           0        0.000000    0.000000    3.397990
      3          8           0        0.000000    0.000000   -3.397990
      4          8           0        0.000000    0.000000   -2.045610
 ---------------------------------------------------------------------

 SCF Done:  E(ROHF) =  -298.991262744     A.U. after   11 cycles
 E2 =    -0.1076090631D+01 EUMP2 =    -0.30006735337453D+03
 CCSD(T)
 CCSD(T)= -0.30003883739D+03

 The electronic state is 6-SGG.
 Alpha  occ. eigenvalues --  -20.50665 -20.50664 -20.47683 -20.47682  -1.36237
 Alpha  occ. eigenvalues --   -1.36233  -1.00239  -1.00030  -0.52475  -0.52475
 Alpha  occ. eigenvalues --   -0.52462  -0.52462  -0.51506  -0.50941  -0.32450
 Alpha  occ. eigenvalues --   -0.32450  -0.32427  -0.32427   0.18646
 Alpha virt. eigenvalues --    0.30719   0.81447   0.88922   0.90101   0.90101
 Alpha virt. eigenvalues --    0.90417   0.90417   0.93072   0.99279   0.99279
 Alpha virt. eigenvalues --    1.00044   1.00044   1.00226   1.10572   1.10602

 Mulliken charges and spin densities:
               1          2
     1  O   -0.183833   1.331855
     2  O   -0.316167   1.168145
     3  O   -0.316167   1.168145
     4  O   -0.183833   1.331855
 Sum of Mulliken charges =  -1.00000   5.00000

 Dipole moment (field-independent basis, Debye):
    X=             -0.0000    Y=              0.0000    Z=              0.0000  Tot=              0.0000
 Quadrupole moment (field-independent basis, Debye-Ang):
   XX=            -22.1816   YY=            -22.1816   ZZ=            -67.4273
   XY=             -0.0000   XZ=              0.0000   YZ=             -0.0000

 \MP4SDQ=-299.9996808\CCSD=-299.9867025\CCSD(T)=-300.0388374\RMSD=9.201
 Normal termination of Gaussian 16 at Sun Jan 15 06:50:52 2023.
