 Gaussian 16, Revision A.03,
 Gaussian 16:  ES64L-G16RevA.03 25-Dec-2016

 ---------------------------------------------------------------
 #p ROCCSD(T)/cc-pVTZ Guess=Read SCF=(VeryTight,CDIIS,VShift=10)
 ---------------------------------------------------------------

 ---------
 O2_O2_286
 ---------
 Symbolic Z-matrix:
 Charge = -1 Multiplicity = 6

                         Standard orientation:
 ---------------------------------------------------------------------
 Center     Atomic      Atomic             Coordinates (Angstroms)
 Number     Number       Type             X           Y           Z
 ---------------------------------------------------------------------
      1          8           0        0.000000    0.000000    2.817252
      2          8           0        0.000000    0.000000    4.169633
      3          8           0        0.000000    0.000000   -4.169633
      4          8           0        0.000000    0.000000   -2.817252
 ---------------------------------------------------------------------

 SCF Done:  E(ROHF) =  -298.982447369     A.U. after   11 cycles
 E2 =    -0.1078749193D+01 EUMP2 =    -0.30006119656227D+03
 CCSD(T)
 CCSD(T)= -0.30003056361D+03

 The electronic state is 6-SGG.
 Alpha  occ. eigenvalues --  -20.50663 -20.50663 -20.48918 -20.48918  -1.37028
 Alpha  occ. eigenvalues --   -1.37027  -1.01133  -1.00954  -0.53172  -0.53172
 Alpha  occ. eigenvalues --   -0.53172  -0.53172  -0.52473  -0.52295  -0.33293
 Alpha  occ. eigenvalues --   -0.33293  -0.33293  -0.33293   0.19325
 Alpha virt. eigenvalues --    0.27106   0.84762   0.84940   0.89368   0.89368
 Alpha virt. eigenvalues --    0.89372   0.89372   0.93944   0.94195   0.98646
 Alpha virt. eigenvalues --    0.98646   0.98662   0.98662   1.09709   1.09711

 Mulliken charges and spin densities:
               1          2
     1  O   -0.206777   1.300293
     2  O   -0.293223   1.199707
     3  O   -0.293223   1.199707
     4  O   -0.206777   1.300293
 Sum of Mulliken charges =  -1.00000   5.00000

 Dipole moment (field-independent basis, Debye):
    X=             -0.0000    Y=              0.0000    Z=             -0.0000  Tot=              0.0000
 Quadrupole moment (field-independent basis, Debye-Ang):
   XX=            -22.1620   YY=            -22.1620   ZZ=            -90.1643
   XY=             -0.0000   XZ=              0.0000   YZ=             -0.0000

 P4SDQ=-299.990604\CCSD=-299.9782932\CCSD(T)=-300.0305636\RMSD=4.861e-0
 Normal termination of Gaussian 16 at Mon Jan 16 05:14:01 2023.
