 Gaussian 16, Revision A.03,
 Gaussian 16:  ES64L-G16RevA.03 25-Dec-2016

 ----------------------------------------------------
 #p ROCCSD(T)/cc-pVTZ SCF=(VeryTight,CDIIS,VShift=10)
 ----------------------------------------------------

 -------
 O2_O2_0
 -------
 Symbolic Z-matrix:
 Charge = -1 Multiplicity = 6

                         Standard orientation:
 ---------------------------------------------------------------------
 Center     Atomic      Atomic             Coordinates (Angstroms)
 Number     Number       Type             X           Y           Z
 ---------------------------------------------------------------------
      1          8           0        0.000000    0.000000    0.792575
      2          8           0        0.000000    0.000000    2.144956
      3          8           0        0.000000    0.000000   -2.144956
      4          8           0        0.000000    0.000000   -0.792575
 ---------------------------------------------------------------------

 SCF Done:  E(ROHF) =  -298.905985062     A.U. after   15 cycles
 E2 =    -0.1059211979D+01 EUMP2 =    -0.29996519704080D+03
 CCSD(T)
 CCSD(T)= -0.29996102285D+03

 The electronic state is 6-SGG.
 Alpha  occ. eigenvalues --  -20.43178 -20.43177 -20.38339 -20.38322  -1.32655
 Alpha  occ. eigenvalues --   -1.29315  -1.03914  -0.88971  -0.56388  -0.48634
 Alpha  occ. eigenvalues --   -0.48634  -0.45651  -0.45651  -0.33570  -0.30178
 Alpha  occ. eigenvalues --   -0.30178  -0.21308  -0.21308   0.12751
 Alpha virt. eigenvalues --    0.57580   0.85271   0.87555   0.93743   0.93743
 Alpha virt. eigenvalues --    0.95150   0.95150   1.02287   1.02287   1.12344
 Alpha virt. eigenvalues --    1.12471   1.20916   1.20916   1.29706   1.65159

 Mulliken charges and spin densities:
               1          2
     1  O   -0.240569   0.994080
     2  O   -0.259431   1.505920
     3  O   -0.259431   1.505920
     4  O   -0.240569   0.994080
 Sum of Mulliken charges =  -1.00000   5.00000

 Dipole moment (field-independent basis, Debye):
    X=             -0.0000    Y=             -0.0000    Z=             -0.0000  Tot=              0.0000
 Quadrupole moment (field-independent basis, Debye-Ang):
   XX=            -22.0178   YY=            -22.0178   ZZ=            -39.8676
   XY=             -0.0000   XZ=              0.0000   YZ=             -0.0000

 9168568\CCSD=-299.9064467\CCSD(T)=-299.9610229\RMSD=3.670e-09\PG=D*H [
 Normal termination of Gaussian 16 at Sat Jan 14 23:07:11 2023.
