 Gaussian 16, Revision A.03,
 Gaussian 16:  ES64L-G16RevA.03 25-Dec-2016

 ---------------------------------------------------------------
 #p ROCCSD(T)/cc-pVTZ Guess=Read SCF=(VeryTight,CDIIS,VShift=10)
 ---------------------------------------------------------------

 ---------
 O2_O2_112
 ---------
 Symbolic Z-matrix:
 Charge = -1 Multiplicity = 6

                         Standard orientation:
 ---------------------------------------------------------------------
 Center     Atomic      Atomic             Coordinates (Angstroms)
 Number     Number       Type             X           Y           Z
 ---------------------------------------------------------------------
      1          8           0        0.000000    0.000000    1.585456
      2          8           0        0.000000    0.000000    2.937836
      3          8           0        0.000000    0.000000   -2.937836
      4          8           0        0.000000    0.000000   -1.585456
 ---------------------------------------------------------------------

 SCF Done:  E(ROHF) =  -299.007008580     A.U. after    8 cycles
 E2 =    -0.1073546885D+01 EUMP2 =    -0.30008055546525D+03
 CCSD(T)
 CCSD(T)= -0.30005434242D+03

 The electronic state is 6-SGG.
 Alpha  occ. eigenvalues --  -20.50979 -20.50978 -20.46249 -20.46249  -1.35526
 Alpha  occ. eigenvalues --   -1.35477  -0.99441  -0.98971  -0.51912  -0.51911
 Alpha  occ. eigenvalues --   -0.51792  -0.51792  -0.50839  -0.49039  -0.31637
 Alpha  occ. eigenvalues --   -0.31637  -0.31459  -0.31459   0.17140
 Alpha virt. eigenvalues --    0.35516   0.79259   0.89667   0.89667   0.89809
 Alpha virt. eigenvalues --    0.92037   0.92037   0.92275   0.98447   0.98447
 Alpha virt. eigenvalues --    1.03656   1.03656   1.11220   1.11510   1.24638

 Mulliken charges and spin densities:
               1          2
     1  O   -0.157880   1.374846
     2  O   -0.342120   1.125154
     3  O   -0.342120   1.125154
     4  O   -0.157880   1.374846
 Sum of Mulliken charges =  -1.00000   5.00000

 Dipole moment (field-independent basis, Debye):
    X=             -0.0000    Y=              0.0000    Z=              0.0000  Tot=              0.0000
 Quadrupole moment (field-independent basis, Debye-Ang):
   XX=            -22.1983   YY=            -22.1983   ZZ=            -56.2146
   XY=             -0.0000   XZ=              0.0000   YZ=             -0.0000

 55\MP4SDQ=-300.0162135\CCSD=-300.002171\CCSD(T)=-300.0543424\RMSD=2.26
 Normal termination of Gaussian 16 at Sun Jan 15 03:59:04 2023.
