 Gaussian 16, Revision A.03,
 Gaussian 16:  ES64L-G16RevA.03 25-Dec-2016

 ---------------------------------------------------------------
 #p ROCCSD(T)/cc-pVTZ Guess=Read SCF=(VeryTight,CDIIS,VShift=10)
 ---------------------------------------------------------------

 --------
 O2_O2_83
 --------
 Symbolic Z-matrix:
 Charge = -1 Multiplicity = 6

                         Standard orientation:
 ---------------------------------------------------------------------
 Center     Atomic      Atomic             Coordinates (Angstroms)
 Number     Number       Type             X           Y           Z
 ---------------------------------------------------------------------
      1          8           0        0.000000    0.000000    1.380157
      2          8           0        0.000000    0.000000    2.732537
      3          8           0        0.000000    0.000000   -2.732537
      4          8           0        0.000000    0.000000   -1.380157
 ---------------------------------------------------------------------

 SCF Done:  E(ROHF) =  -299.008756974     A.U. after   14 cycles
 E2 =    -0.1074704034D+01 EUMP2 =    -0.30008346100778D+03
 CCSD(T)
 CCSD(T)= -0.30005722683D+03

 The electronic state is 6-SGG.
 Alpha  occ. eigenvalues --  -20.49906 -20.49904 -20.45166 -20.45165  -1.34714
 Alpha  occ. eigenvalues --   -1.34563  -0.98886  -0.97901  -0.51062  -0.51062
 Alpha  occ. eigenvalues --   -0.50849  -0.50745  -0.50745  -0.47559  -0.30857
 Alpha  occ. eigenvalues --   -0.30857  -0.30416  -0.30416   0.16562
 Alpha virt. eigenvalues --    0.37596   0.86362   0.89026   0.89026   0.89155
 Alpha virt. eigenvalues --    0.92187   0.93204   0.93204   0.98032   0.98032
 Alpha virt. eigenvalues --    1.07244   1.07244   1.11757   1.12287   1.40792

 Mulliken charges and spin densities:
               1          2
     1  O   -0.148677   1.363535
     2  O   -0.351323   1.136465
     3  O   -0.351323   1.136465
     4  O   -0.148677   1.363535
 Sum of Mulliken charges =  -1.00000   5.00000

 Dipole moment (field-independent basis, Debye):
    X=             -0.0000    Y=              0.0000    Z=             -0.0000  Tot=              0.0000
 Quadrupole moment (field-independent basis, Debye-Ang):
   XX=            -22.1963   YY=            -22.1963   ZZ=            -52.2909
   XY=             -0.0000   XZ=              0.0000   YZ=             -0.0000

 4SDQ=-300.0188247\CCSD=-300.0047629\CCSD(T)=-300.0572268\RMSD=2.801e-0
 Normal termination of Gaussian 16 at Sun Jan 15 02:43:58 2023.
