 Gaussian 16, Revision A.03,
 Gaussian 16:  ES64L-G16RevA.03 25-Dec-2016

 ---------------------------------------------------------------
 #p ROCCSD(T)/cc-pVTZ Guess=Read SCF=(VeryTight,CDIIS,VShift=10)
 ---------------------------------------------------------------

 ---------
 O2_O2_143
 ---------
 Symbolic Z-matrix:
 Charge = -1 Multiplicity = 6

                         Standard orientation:
 ---------------------------------------------------------------------
 Center     Atomic      Atomic             Coordinates (Angstroms)
 Number     Number       Type             X           Y           Z
 ---------------------------------------------------------------------
      1          8           0        0.000000    0.000000    1.804914
      2          8           0        0.000000    0.000000    3.157294
      3          8           0        0.000000    0.000000   -3.157294
      4          8           0        0.000000    0.000000   -1.804914
 ---------------------------------------------------------------------

 SCF Done:  E(ROHF) =  -299.000215700     A.U. after   11 cycles
 E2 =    -0.1074468765D+01 EUMP2 =    -0.30007468446477D+03
 CCSD(T)
 CCSD(T)= -0.30004736980D+03

 The electronic state is 6-SGG.
 Alpha  occ. eigenvalues --  -20.51066 -20.51065 -20.47160 -20.47159  -1.36014
 Alpha  occ. eigenvalues --   -1.35998  -0.99934  -0.99657  -0.52340  -0.52340
 Alpha  occ. eigenvalues --   -0.52299  -0.52299  -0.51141  -0.50143  -0.32187
 Alpha  occ. eigenvalues --   -0.32187  -0.32118  -0.32118   0.17900
 Alpha virt. eigenvalues --    0.33119   0.78369   0.89842   0.90041   0.90041
 Alpha virt. eigenvalues --    0.91046   0.91046   0.92409   0.98984   0.98984
 Alpha virt. eigenvalues --    1.01311   1.01311   1.09988   1.10905   1.10950

 Mulliken charges and spin densities:
               1          2
     1  O   -0.171844   1.355896
     2  O   -0.328156   1.144104
     3  O   -0.328156   1.144104
     4  O   -0.171844   1.355896
 Sum of Mulliken charges =  -1.00000   5.00000

 Dipole moment (field-independent basis, Debye):
    X=             -0.0000    Y=              0.0000    Z=              0.0000  Tot=              0.0000
 Quadrupole moment (field-independent basis, Debye-Ang):
   XX=            -22.1948   YY=            -22.1948   ZZ=            -61.1655
   XY=             -0.0000   XZ=              0.0000   YZ=             -0.0000

 45\MP4SDQ=-300.0089112\CCSD=-299.9952995\CCSD(T)=-300.0473698\RMSD=8.1
 Normal termination of Gaussian 16 at Sun Jan 15 05:20:28 2023.
