 Gaussian 16, Revision A.03,
 Gaussian 16:  ES64L-G16RevA.03 25-Dec-2016

 ---------------------------------------------------------------
 #p ROCCSD(T)/cc-pVTZ Guess=Read SCF=(VeryTight,CDIIS,VShift=10)
 ---------------------------------------------------------------

 ---------
 O2_O2_246
 ---------
 Symbolic Z-matrix:
 Charge = -1 Multiplicity = 6

                         Standard orientation:
 ---------------------------------------------------------------------
 Center     Atomic      Atomic             Coordinates (Angstroms)
 Number     Number       Type             X           Y           Z
 ---------------------------------------------------------------------
      1          8           0        0.000000    0.000000    2.534081
      2          8           0        0.000000    0.000000    3.886461
      3          8           0        0.000000    0.000000   -3.886461
      4          8           0        0.000000    0.000000   -2.534081
 ---------------------------------------------------------------------

 SCF Done:  E(ROHF) =  -298.983292719     A.U. after   11 cycles
 E2 =    -0.1078100202D+01 EUMP2 =    -0.30006139292179D+03
 CCSD(T)
 CCSD(T)= -0.30003137416D+03

 The electronic state is 6-SGG.
 Alpha  occ. eigenvalues --  -20.50515 -20.50514 -20.48457 -20.48457  -1.36716
 Alpha  occ. eigenvalues --   -1.36715  -1.00801  -1.00620  -0.52875  -0.52875
 Alpha  occ. eigenvalues --   -0.52874  -0.52874  -0.52151  -0.51906  -0.32961
 Alpha  occ. eigenvalues --   -0.32961  -0.32959  -0.32959   0.19254
 Alpha virt. eigenvalues --    0.27961   0.84771   0.85718   0.89679   0.89679
 Alpha virt. eigenvalues --    0.89697   0.89697   0.94099   0.94816   0.98965
 Alpha virt. eigenvalues --    0.98965   0.99019   0.99019   1.10025   1.10028

 Mulliken charges and spin densities:
               1          2
     1  O   -0.199440   1.308831
     2  O   -0.300560   1.191169
     3  O   -0.300560   1.191169
     4  O   -0.199440   1.308831
 Sum of Mulliken charges =  -1.00000   5.00000

 Dipole moment (field-independent basis, Debye):
    X=             -0.0000    Y=              0.0000    Z=             -0.0000  Tot=              0.0000
 Quadrupole moment (field-independent basis, Debye-Ang):
   XX=            -22.1647   YY=            -22.1647   ZZ=            -81.3080
   XY=             -0.0000   XZ=              0.0000   YZ=             -0.0000

 P4SDQ=-299.9915129\CCSD=-299.979117\CCSD(T)=-300.0313742\RMSD=8.120e-1
 Normal termination of Gaussian 16 at Mon Jan 16 04:25:55 2023.
