 Gaussian 16, Revision A.03,
 Gaussian 16:  ES64L-G16RevA.03 25-Dec-2016

 ---------------------------------------------------------------
 #p ROCCSD(T)/cc-pVTZ Guess=Read SCF=(VeryTight,CDIIS,VShift=10)
 ---------------------------------------------------------------

 ---------
 O2_O2_181
 ---------
 Symbolic Z-matrix:
 Charge = -1 Multiplicity = 6

                         Standard orientation:
 ---------------------------------------------------------------------
 Center     Atomic      Atomic             Coordinates (Angstroms)
 Number     Number       Type             X           Y           Z
 ---------------------------------------------------------------------
      1          8           0        0.000000    0.000000    2.073927
      2          8           0        0.000000    0.000000    3.426307
      3          8           0        0.000000    0.000000   -3.426307
      4          8           0        0.000000    0.000000   -2.073927
 ---------------------------------------------------------------------

 SCF Done:  E(ROHF) =  -298.990397629     A.U. after   13 cycles
 E2 =    -0.1076255977D+01 EUMP2 =    -0.30006665360576D+03
 CCSD(T)
 CCSD(T)= -0.30003802454D+03

 The electronic state is 6-SGG.
 Alpha  occ. eigenvalues --  -20.50627 -20.50626 -20.47728 -20.47727  -1.36259
 Alpha  occ. eigenvalues --   -1.36255  -1.00270  -1.00064  -0.52489  -0.52489
 Alpha  occ. eigenvalues --   -0.52478  -0.52478  -0.51547  -0.51015  -0.32474
 Alpha  occ. eigenvalues --   -0.32474  -0.32454  -0.32454   0.18713
 Alpha virt. eigenvalues --    0.30485   0.81831   0.88738   0.90091   0.90091
 Alpha virt. eigenvalues --    0.90363   0.90363   0.93173   0.99287   0.99287
 Alpha virt. eigenvalues --    0.99498   0.99949   0.99949   1.10543   1.10567

 Mulliken charges and spin densities:
               1          2
     1  O   -0.184929   1.329791
     2  O   -0.315071   1.170209
     3  O   -0.315071   1.170209
     4  O   -0.184929   1.329791
 Sum of Mulliken charges =  -1.00000   5.00000

 Dipole moment (field-independent basis, Debye):
    X=             -0.0000    Y=              0.0000    Z=              0.0000  Tot=              0.0000
 Quadrupole moment (field-independent basis, Debye-Ang):
   XX=            -22.1800   YY=            -22.1800   ZZ=            -68.1955
   XY=             -0.0000   XZ=              0.0000   YZ=             -0.0000

 36\MP4SDQ=-299.9987953\CCSD=-299.9858784\CCSD(T)=-300.0380245\RMSD=5.9
 Normal termination of Gaussian 16 at Sun Jan 15 07:03:56 2023.
