 Gaussian 16, Revision A.03,
 Gaussian 16:  ES64L-G16RevA.03 25-Dec-2016

 ---------------------------------------------------------------
 #p ROCCSD(T)/cc-pVTZ Guess=Read SCF=(VeryTight,CDIIS,VShift=10)
 ---------------------------------------------------------------

 ---------
 O2_O2_250
 ---------
 Symbolic Z-matrix:
 Charge = -1 Multiplicity = 6

                         Standard orientation:
 ---------------------------------------------------------------------
 Center     Atomic      Atomic             Coordinates (Angstroms)
 Number     Number       Type             X           Y           Z
 ---------------------------------------------------------------------
      1          8           0        0.000000    0.000000    2.562398
      2          8           0        0.000000    0.000000    3.914778
      3          8           0        0.000000    0.000000   -3.914778
      4          8           0        0.000000    0.000000   -2.562398
 ---------------------------------------------------------------------

 SCF Done:  E(ROHF) =  -298.983148256     A.U. after   12 cycles
 E2 =    -0.1078175979D+01 EUMP2 =    -0.30006132423540D+03
 CCSD(T)
 CCSD(T)= -0.30003123751D+03

 The electronic state is 6-SGG.
 Alpha  occ. eigenvalues --  -20.50527 -20.50526 -20.48505 -20.48504  -1.36748
 Alpha  occ. eigenvalues --   -1.36747  -1.00836  -1.00654  -0.52905  -0.52905
 Alpha  occ. eigenvalues --   -0.52904  -0.52904  -0.52185  -0.51948  -0.32994
 Alpha  occ. eigenvalues --   -0.32994  -0.32993  -0.32993   0.19266
 Alpha virt. eigenvalues --    0.27861   0.84799   0.85608   0.89647   0.89647
 Alpha virt. eigenvalues --    0.89663   0.89663   0.94098   0.94730   0.98933
 Alpha virt. eigenvalues --    0.98933   0.98980   0.98980   1.09992   1.09995

 Mulliken charges and spin densities:
               1          2
     1  O   -0.200226   1.307898
     2  O   -0.299774   1.192102
     3  O   -0.299774   1.192102
     4  O   -0.200226   1.307898
 Sum of Mulliken charges =  -1.00000   5.00000

 Dipole moment (field-independent basis, Debye):
    X=             -0.0000    Y=              0.0000    Z=             -0.0000  Tot=              0.0000
 Quadrupole moment (field-independent basis, Debye-Ang):
   XX=            -22.1643   YY=            -22.1643   ZZ=            -82.1620
   XY=             -0.0000   XZ=              0.0000   YZ=             -0.0000

 P4SDQ=-299.9913614\CCSD=-299.978978\CCSD(T)=-300.0312375\RMSD=7.376e-0
 Normal termination of Gaussian 16 at Mon Jan 16 04:30:36 2023.
