 Gaussian 16, Revision A.03,
 Gaussian 16:  ES64L-G16RevA.03 25-Dec-2016

 ---------------------------------------------------------------
 #p ROCCSD(T)/cc-pVTZ Guess=Read SCF=(VeryTight,CDIIS,VShift=10)
 ---------------------------------------------------------------

 ---------
 O2_O2_278
 ---------
 Symbolic Z-matrix:
 Charge = -1 Multiplicity = 6

                         Standard orientation:
 ---------------------------------------------------------------------
 Center     Atomic      Atomic             Coordinates (Angstroms)
 Number     Number       Type             X           Y           Z
 ---------------------------------------------------------------------
      1          8           0        0.000000    0.000000    2.760619
      2          8           0        0.000000    0.000000    4.112999
      3          8           0        0.000000    0.000000   -4.112999
      4          8           0        0.000000    0.000000   -2.760619
 ---------------------------------------------------------------------

 SCF Done:  E(ROHF) =  -298.982537479     A.U. after    9 cycles
 E2 =    -0.1078635922D+01 EUMP2 =    -0.30006117340023D+03
 CCSD(T)
 CCSD(T)= -0.30003065224D+03

 The electronic state is 6-SGG.
 Alpha  occ. eigenvalues --  -20.50631 -20.50630 -20.48829 -20.48829  -1.36967
 Alpha  occ. eigenvalues --   -1.36966  -1.01069  -1.00890  -0.53114  -0.53114
 Alpha  occ. eigenvalues --   -0.53114  -0.53114  -0.52412  -0.52223  -0.33229
 Alpha  occ. eigenvalues --   -0.33229  -0.33228  -0.33228   0.19317
 Alpha virt. eigenvalues --    0.27256   0.84799   0.85051   0.89428   0.89428
 Alpha virt. eigenvalues --    0.89434   0.89434   0.93993   0.94289   0.98708
 Alpha virt. eigenvalues --    0.98708   0.98728   0.98728   1.09770   1.09772

 Mulliken charges and spin densities:
               1          2
     1  O   -0.205408   1.301869
     2  O   -0.294592   1.198131
     3  O   -0.294592   1.198131
     4  O   -0.205408   1.301869
 Sum of Mulliken charges =  -1.00000   5.00000

 Dipole moment (field-independent basis, Debye):
    X=             -0.0000    Y=              0.0000    Z=             -0.0000  Tot=              0.0000
 Quadrupole moment (field-independent basis, Debye-Ang):
   XX=            -22.1624   YY=            -22.1624   ZZ=            -88.3346
   XY=             -0.0000   XZ=              0.0000   YZ=             -0.0000

 P4SDQ=-299.9907057\CCSD=-299.9783831\CCSD(T)=-300.0306522\RMSD=7.763e-
 Normal termination of Gaussian 16 at Mon Jan 16 05:04:42 2023.
