 Gaussian 16, Revision A.03,
 Gaussian 16:  ES64L-G16RevA.03 25-Dec-2016

 ---------------------------------------------------------------
 #p ROCCSD(T)/cc-pVTZ Guess=Read SCF=(VeryTight,CDIIS,VShift=10)
 ---------------------------------------------------------------

 ---------
 O2_O2_138
 ---------
 Symbolic Z-matrix:
 Charge = -1 Multiplicity = 6

                         Standard orientation:
 ---------------------------------------------------------------------
 Center     Atomic      Atomic             Coordinates (Angstroms)
 Number     Number       Type             X           Y           Z
 ---------------------------------------------------------------------
      1          8           0        0.000000    0.000000    1.769518
      2          8           0        0.000000    0.000000    3.121898
      3          8           0        0.000000    0.000000   -3.121898
      4          8           0        0.000000    0.000000   -1.769518
 ---------------------------------------------------------------------

 SCF Done:  E(ROHF) =  -299.001563220     A.U. after   13 cycles
 E2 =    -0.1074233613D+01 EUMP2 =    -0.30007579683239D+03
 CCSD(T)
 CCSD(T)= -0.30004868771D+03

 The electronic state is 6-SGG.
 Alpha  occ. eigenvalues --  -20.51108 -20.51107 -20.47045 -20.47044  -1.35962
 Alpha  occ. eigenvalues --   -1.35943  -0.99872  -0.99577  -0.52303  -0.52303
 Alpha  occ. eigenvalues --   -0.52254  -0.52254  -0.51086  -0.49993  -0.32125
 Alpha  occ. eigenvalues --   -0.32125  -0.32044  -0.32044   0.17773
 Alpha virt. eigenvalues --    0.33513   0.78149   0.89888   0.90005   0.90005
 Alpha virt. eigenvalues --    0.91176   0.91176   0.92359   0.98908   0.98908
 Alpha virt. eigenvalues --    1.01595   1.01595   1.10821   1.11019   1.12135

 Mulliken charges and spin densities:
               1          2
     1  O   -0.169638   1.359973
     2  O   -0.330362   1.140027
     3  O   -0.330362   1.140027
     4  O   -0.169638   1.359973
 Sum of Mulliken charges =  -1.00000   5.00000

 Dipole moment (field-independent basis, Debye):
    X=             -0.0000    Y=              0.0000    Z=             -0.0000  Tot=              0.0000
 Quadrupole moment (field-independent basis, Debye-Ang):
   XX=            -22.1962   YY=            -22.1962   ZZ=            -60.3065
   XY=             -0.0000   XZ=              0.0000   YZ=             -0.0000

 68\MP4SDQ=-300.0103197\CCSD=-299.9966152\CCSD(T)=-300.0486877\RMSD=5.7
 Normal termination of Gaussian 16 at Sun Jan 15 05:08:15 2023.
