 Gaussian 16, Revision A.03,
 Gaussian 16:  ES64L-G16RevA.03 25-Dec-2016

 ---------------------------------------------------------------
 #p ROCCSD(T)/cc-pVTZ Guess=Read SCF=(VeryTight,CDIIS,VShift=10)
 ---------------------------------------------------------------

 --------
 O2_O2_76
 --------
 Symbolic Z-matrix:
 Charge = -1 Multiplicity = 6

                         Standard orientation:
 ---------------------------------------------------------------------
 Center     Atomic      Atomic             Coordinates (Angstroms)
 Number     Number       Type             X           Y           Z
 ---------------------------------------------------------------------
      1          8           0        0.000000    0.000000    1.330602
      2          8           0        0.000000    0.000000    2.682982
      3          8           0        0.000000    0.000000   -2.682982
      4          8           0        0.000000    0.000000   -1.330602
 ---------------------------------------------------------------------

 SCF Done:  E(ROHF) =  -299.008484559     A.U. after   14 cycles
 E2 =    -0.1075321637D+01 EUMP2 =    -0.30008380619649D+03
 CCSD(T)
 CCSD(T)= -0.30005737182D+03

 The electronic state is 6-SGG.
 Alpha  occ. eigenvalues --  -20.49506 -20.49504 -20.44916 -20.44915  -1.34489
 Alpha  occ. eigenvalues --   -1.34290  -0.98787  -0.97579  -0.50939  -0.50815
 Alpha  occ. eigenvalues --   -0.50815  -0.50417  -0.50417  -0.47106  -0.30668
 Alpha  occ. eigenvalues --   -0.30668  -0.30115  -0.30115   0.16430
 Alpha virt. eigenvalues --    0.38139   0.88895   0.88895   0.88938   0.89112
 Alpha virt. eigenvalues --    0.92107   0.93475   0.93475   0.97985   0.97985
 Alpha virt. eigenvalues --    1.08287   1.08287   1.11889   1.12494   1.44492

 Mulliken charges and spin densities:
               1          2
     1  O   -0.147603   1.355426
     2  O   -0.352397   1.144574
     3  O   -0.352397   1.144574
     4  O   -0.147603   1.355426
 Sum of Mulliken charges =  -1.00000   5.00000

 Dipole moment (field-independent basis, Debye):
    X=             -0.0000    Y=              0.0000    Z=              0.0000  Tot=              0.0000
 Quadrupole moment (field-independent basis, Debye-Ang):
   XX=            -22.1964   YY=            -22.1964   ZZ=            -51.3942
   XY=             -0.0000   XZ=              0.0000   YZ=             -0.0000

 2\MP4SDQ=-300.0188418\CCSD=-300.004811\CCSD(T)=-300.0573718\RMSD=2.883
 Normal termination of Gaussian 16 at Sun Jan 15 02:25:55 2023.
