 Gaussian 16, Revision A.03,
 Gaussian 16:  ES64L-G16RevA.03 25-Dec-2016

 ---------------------------------------------------------------
 #p ROCCSD(T)/cc-pVTZ Guess=Read SCF=(VeryTight,CDIIS,VShift=10)
 ---------------------------------------------------------------

 ---------
 O2_O2_213
 ---------
 Symbolic Z-matrix:
 Charge = -1 Multiplicity = 6

                         Standard orientation:
 ---------------------------------------------------------------------
 Center     Atomic      Atomic             Coordinates (Angstroms)
 Number     Number       Type             X           Y           Z
 ---------------------------------------------------------------------
      1          8           0        0.000000    0.000000    2.300464
      2          8           0        0.000000    0.000000    3.652845
      3          8           0        0.000000    0.000000   -3.652845
      4          8           0        0.000000    0.000000   -2.300464
 ---------------------------------------------------------------------

 SCF Done:  E(ROHF) =  -298.985487970     A.U. after   12 cycles
 E2 =    -0.1077335875D+01 EUMP2 =    -0.30006282384550D+03
 CCSD(T)
 CCSD(T)= -0.30003343111D+03

 The electronic state is 6-SGG.
 Alpha  occ. eigenvalues --  -20.50475 -20.50474 -20.48075 -20.48075  -1.36463
 Alpha  occ. eigenvalues --   -1.36461  -1.00521  -1.00333  -0.52646  -0.52646
 Alpha  occ. eigenvalues --   -0.52643  -0.52643  -0.51856  -0.51510  -0.32692
 Alpha  occ. eigenvalues --   -0.32692  -0.32686  -0.32686   0.19086
 Alpha virt. eigenvalues --    0.28985   0.84020   0.87036   0.89927   0.89927
 Alpha virt. eigenvalues --    0.90003   0.90003   0.93863   0.96049   0.99201
 Alpha virt. eigenvalues --    0.99201   0.99395   0.99395   1.10299   1.10300

 Mulliken charges and spin densities:
               1          2
     1  O   -0.192560   1.317535
     2  O   -0.307440   1.182465
     3  O   -0.307440   1.182465
     4  O   -0.192560   1.317535
 Sum of Mulliken charges =  -1.00000   5.00000

 Dipole moment (field-independent basis, Debye):
    X=             -0.0000    Y=              0.0000    Z=             -0.0000  Tot=              0.0000
 Quadrupole moment (field-independent basis, Debye-Ang):
   XX=            -22.1701   YY=            -22.1701   ZZ=            -74.4916
   XY=             -0.0000   XZ=              0.0000   YZ=             -0.0000

 \MP4SDQ=-299.9937757\CCSD=-299.9812108\CCSD(T)=-300.0334311\RMSD=8.908
 Normal termination of Gaussian 16 at Sun Jan 15 08:28:25 2023.
