 Gaussian 16, Revision A.03,
 Gaussian 16:  ES64L-G16RevA.03 25-Dec-2016

 ---------------------------------------------------------------
 #p ROCCSD(T)/cc-pVTZ Guess=Read SCF=(VeryTight,CDIIS,VShift=10)
 ---------------------------------------------------------------

 ---------
 O2_O2_111
 ---------
 Symbolic Z-matrix:
 Charge = -1 Multiplicity = 6

                         Standard orientation:
 ---------------------------------------------------------------------
 Center     Atomic      Atomic             Coordinates (Angstroms)
 Number     Number       Type             X           Y           Z
 ---------------------------------------------------------------------
      1          8           0        0.000000    0.000000    1.578377
      2          8           0        0.000000    0.000000    2.930757
      3          8           0        0.000000    0.000000   -2.930757
      4          8           0        0.000000    0.000000   -1.578377
 ---------------------------------------------------------------------

 SCF Done:  E(ROHF) =  -299.007146960     A.U. after    9 cycles
 E2 =    -0.1073549581D+01 EUMP2 =    -0.30008069654149D+03
 CCSD(T)
 CCSD(T)= -0.30005450380D+03

 The electronic state is 6-SGG.
 Alpha  occ. eigenvalues --  -20.50959 -20.50957 -20.46213 -20.46213  -1.35503
 Alpha  occ. eigenvalues --   -1.35452  -0.99421  -0.98941  -0.51889  -0.51889
 Alpha  occ. eigenvalues --   -0.51765  -0.51765  -0.50832  -0.48997  -0.31613
 Alpha  occ. eigenvalues --   -0.31613  -0.31429  -0.31429   0.17118
 Alpha virt. eigenvalues --    0.35589   0.79393   0.89648   0.89648   0.89796
 Alpha virt. eigenvalues --    0.92076   0.92076   0.92275   0.98429   0.98429
 Alpha virt. eigenvalues --    1.03757   1.03757   1.11237   1.11533   1.25178

 Mulliken charges and spin densities:
               1          2
     1  O   -0.157470   1.375019
     2  O   -0.342530   1.124981
     3  O   -0.342530   1.124981
     4  O   -0.157470   1.375019
 Sum of Mulliken charges =  -1.00000   5.00000

 Dipole moment (field-independent basis, Debye):
    X=             -0.0000    Y=              0.0000    Z=              0.0000  Tot=              0.0000
 Quadrupole moment (field-independent basis, Debye-Ang):
   XX=            -22.1982   YY=            -22.1982   ZZ=            -56.0696
   XY=             -0.0000   XZ=              0.0000   YZ=             -0.0000

 \MP4SDQ=-300.0163745\CCSD=-300.0023253\CCSD(T)=-300.0545038\RMSD=8.712
 Normal termination of Gaussian 16 at Sun Jan 15 03:56:56 2023.
