 Gaussian 16, Revision A.03,
 Gaussian 16:  ES64L-G16RevA.03 25-Dec-2016

 ---------------------------------------------------------------
 #p ROCCSD(T)/cc-pVTZ Guess=Read SCF=(VeryTight,CDIIS,VShift=10)
 ---------------------------------------------------------------

 ---------
 O2_O2_258
 ---------
 Symbolic Z-matrix:
 Charge = -1 Multiplicity = 6

                         Standard orientation:
 ---------------------------------------------------------------------
 Center     Atomic      Atomic             Coordinates (Angstroms)
 Number     Number       Type             X           Y           Z
 ---------------------------------------------------------------------
      1          8           0        0.000000    0.000000    2.619033
      2          8           0        0.000000    0.000000    3.971413
      3          8           0        0.000000    0.000000   -3.971413
      4          8           0        0.000000    0.000000   -2.619033
 ---------------------------------------------------------------------

 SCF Done:  E(ROHF) =  -298.982910961     A.U. after   12 cycles
 E2 =    -0.1078319115D+01 EUMP2 =    -0.30006123007663D+03
 CCSD(T)
 CCSD(T)= -0.30003101203D+03

 The electronic state is 6-SGG.
 Alpha  occ. eigenvalues --  -20.50554 -20.50553 -20.48599 -20.48598  -1.36811
 Alpha  occ. eigenvalues --   -1.36810  -1.00904  -1.00723  -0.52965  -0.52965
 Alpha  occ. eigenvalues --   -0.52964  -0.52964  -0.52252  -0.52031  -0.33062
 Alpha  occ. eigenvalues --   -0.33062  -0.33061  -0.33061   0.19285
 Alpha virt. eigenvalues --    0.27673   0.84828   0.85415   0.89584   0.89584
 Alpha virt. eigenvalues --    0.89595   0.89595   0.94083   0.94579   0.98869
 Alpha virt. eigenvalues --    0.98869   0.98904   0.98904   1.09927   1.09930

 Mulliken charges and spin densities:
               1          2
     1  O   -0.201766   1.306090
     2  O   -0.298234   1.193910
     3  O   -0.298234   1.193910
     4  O   -0.201766   1.306090
 Sum of Mulliken charges =  -1.00000   5.00000

 Dipole moment (field-independent basis, Debye):
    X=             -0.0000    Y=              0.0000    Z=              0.0000  Tot=              0.0000
 Quadrupole moment (field-independent basis, Debye-Ang):
   XX=            -22.1636   YY=            -22.1636   ZZ=            -83.8902
   XY=             -0.0000   XZ=              0.0000   YZ=             -0.0000

 DQ=-299.9911105\CCSD=-299.9787487\CCSD(T)=-300.031012\RMSD=7.323e-09\P
 Normal termination of Gaussian 16 at Mon Jan 16 04:39:52 2023.
