 Gaussian 16, Revision A.03,
 Gaussian 16:  ES64L-G16RevA.03 25-Dec-2016

 ---------------------------------------------------------------
 #p ROCCSD(T)/cc-pVTZ Guess=Read SCF=(VeryTight,CDIIS,VShift=10)
 ---------------------------------------------------------------

 ---------
 O2_O2_261
 ---------
 Symbolic Z-matrix:
 Charge = -1 Multiplicity = 6

                         Standard orientation:
 ---------------------------------------------------------------------
 Center     Atomic      Atomic             Coordinates (Angstroms)
 Number     Number       Type             X           Y           Z
 ---------------------------------------------------------------------
      1          8           0        0.000000    0.000000    2.640271
      2          8           0        0.000000    0.000000    3.992651
      3          8           0        0.000000    0.000000   -3.992651
      4          8           0        0.000000    0.000000   -2.640271
 ---------------------------------------------------------------------

 SCF Done:  E(ROHF) =  -298.982837252     A.U. after   10 cycles
 E2 =    -0.1078370143D+01 EUMP2 =    -0.30006120739540D+03
 CCSD(T)
 CCSD(T)= -0.30003094163D+03

 The electronic state is 6-SGG.
 Alpha  occ. eigenvalues --  -20.50564 -20.50564 -20.48634 -20.48633  -1.36835
 Alpha  occ. eigenvalues --   -1.36834  -1.00929  -1.00748  -0.52987  -0.52987
 Alpha  occ. eigenvalues --   -0.52987  -0.52987  -0.52276  -0.52061  -0.33087
 Alpha  occ. eigenvalues --   -0.33087  -0.33086  -0.33086   0.19291
 Alpha virt. eigenvalues --    0.27606   0.84832   0.85350   0.89560   0.89560
 Alpha virt. eigenvalues --    0.89570   0.89570   0.94074   0.94529   0.98845
 Alpha virt. eigenvalues --    0.98845   0.98876   0.98876   1.09903   1.09906

 Mulliken charges and spin densities:
               1          2
     1  O   -0.202331   1.305431
     2  O   -0.297669   1.194569
     3  O   -0.297669   1.194569
     4  O   -0.202331   1.305431
 Sum of Mulliken charges =  -1.00000   5.00000

 Dipole moment (field-independent basis, Debye):
    X=             -0.0000    Y=              0.0000    Z=             -0.0000  Tot=              0.0000
 Quadrupole moment (field-independent basis, Debye-Ang):
   XX=            -22.1634   YY=            -22.1634   ZZ=            -84.5454
   XY=             -0.0000   XZ=              0.0000   YZ=             -0.0000

 P4SDQ=-299.9910319\CCSD=-299.9786771\CCSD(T)=-300.0309416\RMSD=9.429e-
 Normal termination of Gaussian 16 at Mon Jan 16 04:43:25 2023.
