 Gaussian 16, Revision A.03,
 Gaussian 16:  ES64L-G16RevA.03 25-Dec-2016

 ---------------------------------------------------------------
 #p ROCCSD(T)/cc-pVTZ Guess=Read SCF=(VeryTight,CDIIS,VShift=10)
 ---------------------------------------------------------------

 ---------
 O2_O2_254
 ---------
 Symbolic Z-matrix:
 Charge = -1 Multiplicity = 6

                         Standard orientation:
 ---------------------------------------------------------------------
 Center     Atomic      Atomic             Coordinates (Angstroms)
 Number     Number       Type             X           Y           Z
 ---------------------------------------------------------------------
      1          8           0        0.000000    0.000000    2.590716
      2          8           0        0.000000    0.000000    3.943096
      3          8           0        0.000000    0.000000   -3.943096
      4          8           0        0.000000    0.000000   -2.590716
 ---------------------------------------------------------------------

 SCF Done:  E(ROHF) =  -298.983021666     A.U. after   11 cycles
 E2 =    -0.1078248889D+01 EUMP2 =    -0.30006127055531D+03
 CCSD(T)
 CCSD(T)= -0.30003111742D+03

 The electronic state is 6-SGG.
 Alpha  occ. eigenvalues --  -20.50540 -20.50539 -20.48552 -20.48551  -1.36779
 Alpha  occ. eigenvalues --   -1.36778  -1.00870  -1.00689  -0.52935  -0.52935
 Alpha  occ. eigenvalues --   -0.52934  -0.52934  -0.52219  -0.51990  -0.33028
 Alpha  occ. eigenvalues --   -0.33028  -0.33027  -0.33027   0.19276
 Alpha virt. eigenvalues --    0.27765   0.84817   0.85507   0.89615   0.89615
 Alpha virt. eigenvalues --    0.89629   0.89629   0.94093   0.94651   0.98901
 Alpha virt. eigenvalues --    0.98901   0.98941   0.98941   1.09959   1.09963

 Mulliken charges and spin densities:
               1          2
     1  O   -0.201002   1.306985
     2  O   -0.298998   1.193015
     3  O   -0.298998   1.193015
     4  O   -0.201002   1.306985
 Sum of Mulliken charges =  -1.00000   5.00000

 Dipole moment (field-independent basis, Debye):
    X=             -0.0000    Y=              0.0000    Z=              0.0000  Tot=              0.0000
 Quadrupole moment (field-independent basis, Debye-Ang):
   XX=            -22.1640   YY=            -22.1640   ZZ=            -83.0227
   XY=             -0.0000   XZ=              0.0000   YZ=             -0.0000

 P4SDQ=-299.9912279\CCSD=-299.9788558\CCSD(T)=-300.0311174\RMSD=7.252e-
 Normal termination of Gaussian 16 at Mon Jan 16 04:35:14 2023.
