 Gaussian 16, Revision A.03,
 Gaussian 16:  ES64L-G16RevA.03 25-Dec-2016

 ---------------------------------------------------------------
 #p ROCCSD(T)/cc-pVTZ Guess=Read SCF=(VeryTight,CDIIS,VShift=10)
 ---------------------------------------------------------------

 --------
 O2_O2_46
 --------
 Symbolic Z-matrix:
 Charge = -1 Multiplicity = 6

                         Standard orientation:
 ---------------------------------------------------------------------
 Center     Atomic      Atomic             Coordinates (Angstroms)
 Number     Number       Type             X           Y           Z
 ---------------------------------------------------------------------
      1          8           0        0.000000    0.000000    1.118223
      2          8           0        0.000000    0.000000    2.470603
      3          8           0        0.000000    0.000000   -2.470603
      4          8           0        0.000000    0.000000   -1.118223
 ---------------------------------------------------------------------

 SCF Done:  E(ROHF) =  -299.001522384     A.U. after   15 cycles
 E2 =    -0.1079317269D+01 EUMP2 =    -0.30008083965237D+03
 CCSD(T)
 CCSD(T)= -0.30005311713D+03

 The electronic state is 6-SGG.
 Alpha  occ. eigenvalues --  -20.47048 -20.47044 -20.44061 -20.44060  -1.33499
 Alpha  occ. eigenvalues --   -1.32860  -0.98851  -0.95739  -0.51947  -0.49702
 Alpha  occ. eigenvalues --   -0.49702  -0.48684  -0.48684  -0.44343  -0.30010
 Alpha  occ. eigenvalues --   -0.30010  -0.28485  -0.28485   0.15767
 Alpha virt. eigenvalues --    0.41378   0.87828   0.89320   0.89320   0.90999
 Alpha virt. eigenvalues --    0.94450   0.94450   0.98118   0.98118   1.05178
 Alpha virt. eigenvalues --    1.12384   1.13130   1.13130   1.13599   1.57760

 Mulliken charges and spin densities:
               1          2
     1  O   -0.152550   1.290326
     2  O   -0.347450   1.209674
     3  O   -0.347450   1.209674
     4  O   -0.152550   1.290326
 Sum of Mulliken charges =  -1.00000   5.00000

 Dipole moment (field-independent basis, Debye):
    X=             -0.0000    Y=              0.0000    Z=             -0.0000  Tot=              0.0000
 Quadrupole moment (field-independent basis, Debye-Ang):
   XX=            -22.1936   YY=            -22.1936   ZZ=            -47.4151
   XY=             -0.0000   XZ=              0.0000   YZ=             -0.0000

 7\MP4SDQ=-300.0138627\CCSD=-299.9999823\CCSD(T)=-300.0531171\RMSD=1.17
 Normal termination of Gaussian 16 at Sun Jan 15 01:08:03 2023.
