 Gaussian 16, Revision A.03,
 Gaussian 16:  ES64L-G16RevA.03 25-Dec-2016

 ---------------------------------------------------------------
 #p ROCCSD(T)/cc-pVTZ Guess=Read SCF=(VeryTight,CDIIS,VShift=10)
 ---------------------------------------------------------------

 ---------
 O2_O2_161
 ---------
 Symbolic Z-matrix:
 Charge = -1 Multiplicity = 6

                         Standard orientation:
 ---------------------------------------------------------------------
 Center     Atomic      Atomic             Coordinates (Angstroms)
 Number     Number       Type             X           Y           Z
 ---------------------------------------------------------------------
      1          8           0        0.000000    0.000000    1.932342
      2          8           0        0.000000    0.000000    3.284722
      3          8           0        0.000000    0.000000   -3.284722
      4          8           0        0.000000    0.000000   -1.932342
 ---------------------------------------------------------------------

 SCF Done:  E(ROHF) =  -298.995231281     A.U. after   13 cycles
 E2 =    -0.1075361118D+01 EUMP2 =    -0.30007059239912D+03
 CCSD(T)
 CCSD(T)= -0.30004258652D+03

 The electronic state is 6-SGG.
 Alpha  occ. eigenvalues --  -20.50850 -20.50849 -20.47480 -20.47480  -1.36148
 Alpha  occ. eigenvalues --   -1.36139  -1.00112  -0.99881  -0.52424  -0.52424
 Alpha  occ. eigenvalues --   -0.52402  -0.52402  -0.51339  -0.50609  -0.32347
 Alpha  occ. eigenvalues --   -0.32347  -0.32309  -0.32309   0.18330
 Alpha virt. eigenvalues --    0.31766   0.79829   0.89498   0.90109   0.90109
 Alpha virt. eigenvalues --    0.90667   0.90667   0.92701   0.99192   0.99192
 Alpha virt. eigenvalues --    1.00520   1.00520   1.04012   1.10688   1.10747

 Mulliken charges and spin densities:
               1          2
     1  O   -0.178864   1.341810
     2  O   -0.321136   1.158190
     3  O   -0.321136   1.158190
     4  O   -0.178864   1.341810
 Sum of Mulliken charges =  -1.00000   5.00000

 Dipole moment (field-independent basis, Debye):
    X=             -0.0000    Y=              0.0000    Z=              0.0000  Tot=              0.0000
 Quadrupole moment (field-independent basis, Debye-Ang):
   XX=            -22.1882   YY=            -22.1882   ZZ=            -64.4083
   XY=             -0.0000   XZ=              0.0000   YZ=             -0.0000

 24\MP4SDQ=-300.003754\CCSD=-299.9904933\CCSD(T)=-300.0425865\RMSD=9.64
 Normal termination of Gaussian 16 at Sun Jan 15 06:10:23 2023.
