 Gaussian 16, Revision A.03,
 Gaussian 16:  ES64L-G16RevA.03 25-Dec-2016

 ---------------------------------------------------------------
 #p ROCCSD(T)/cc-pVTZ Guess=Read SCF=(VeryTight,CDIIS,VShift=10)
 ---------------------------------------------------------------

 ---------
 O2_O2_175
 ---------
 Symbolic Z-matrix:
 Charge = -1 Multiplicity = 6

                         Standard orientation:
 ---------------------------------------------------------------------
 Center     Atomic      Atomic             Coordinates (Angstroms)
 Number     Number       Type             X           Y           Z
 ---------------------------------------------------------------------
      1          8           0        0.000000    0.000000    2.031452
      2          8           0        0.000000    0.000000    3.383832
      3          8           0        0.000000    0.000000   -3.383832
      4          8           0        0.000000    0.000000   -2.031452
 ---------------------------------------------------------------------

 SCF Done:  E(ROHF) =  -298.991716147     A.U. after   12 cycles
 E2 =    -0.1076005252D+01 EUMP2 =    -0.30006772139980D+03
 CCSD(T)
 CCSD(T)= -0.30003926395D+03

 The electronic state is 6-SGG.
 Alpha  occ. eigenvalues --  -20.50685 -20.50684 -20.47660 -20.47659  -1.36226
 Alpha  occ. eigenvalues --   -1.36221  -1.00224  -1.00013  -0.52468  -0.52468
 Alpha  occ. eigenvalues --   -0.52455  -0.52455  -0.51486  -0.50903  -0.32437
 Alpha  occ. eigenvalues --   -0.32437  -0.32413  -0.32413   0.18610
 Alpha virt. eigenvalues --    0.30840   0.81249   0.89008   0.90105   0.90105
 Alpha virt. eigenvalues --    0.90445   0.90445   0.93022   0.99273   0.99273
 Alpha virt. eigenvalues --    1.00095   1.00095   1.00622   1.10586   1.10619

 Mulliken charges and spin densities:
               1          2
     1  O   -0.183267   1.332947
     2  O   -0.316733   1.167053
     3  O   -0.316733   1.167053
     4  O   -0.183267   1.332947
 Sum of Mulliken charges =  -1.00000   5.00000

 Dipole moment (field-independent basis, Debye):
    X=             -0.0000    Y=              0.0000    Z=              0.0000  Tot=              0.0000
 Quadrupole moment (field-independent basis, Debye-Ang):
   XX=            -22.1824   YY=            -22.1824   ZZ=            -67.0450
   XY=             -0.0000   XZ=              0.0000   YZ=             -0.0000

 14\MP4SDQ=-300.0001452\CCSD=-299.9871346\CCSD(T)=-300.039264\RMSD=7.07
 Normal termination of Gaussian 16 at Sun Jan 15 06:45:37 2023.
