 Gaussian 16, Revision A.03,
 Gaussian 16:  ES64L-G16RevA.03 25-Dec-2016

 ---------------------------------------------------------------
 #p ROCCSD(T)/cc-pVTZ Guess=Read SCF=(VeryTight,CDIIS,VShift=10)
 ---------------------------------------------------------------

 ---------
 O2_O2_147
 ---------
 Symbolic Z-matrix:
 Charge = -1 Multiplicity = 6

                         Standard orientation:
 ---------------------------------------------------------------------
 Center     Atomic      Atomic             Coordinates (Angstroms)
 Number     Number       Type             X           Y           Z
 ---------------------------------------------------------------------
      1          8           0        0.000000    0.000000    1.833232
      2          8           0        0.000000    0.000000    3.185612
      3          8           0        0.000000    0.000000   -3.185612
      4          8           0        0.000000    0.000000   -1.833232
 ---------------------------------------------------------------------

 SCF Done:  E(ROHF) =  -298.999108134     A.U. after   11 cycles
 E2 =    -0.1074665211D+01 EUMP2 =    -0.30007377334486D+03
 CCSD(T)
 CCSD(T)= -0.30004629654D+03

 The electronic state is 6-SGG.
 Alpha  occ. eigenvalues --  -20.51024 -20.51023 -20.47243 -20.47242  -1.36050
 Alpha  occ. eigenvalues --   -1.36036  -0.99979  -0.99715  -0.52365  -0.52365
 Alpha  occ. eigenvalues --   -0.52329  -0.52329  -0.51185  -0.50256  -0.32230
 Alpha  occ. eigenvalues --   -0.32230  -0.32169  -0.32169   0.18000
 Alpha virt. eigenvalues --    0.32807   0.78617   0.89791   0.90064   0.90064
 Alpha virt. eigenvalues --    0.90950   0.90950   0.92459   0.99040   0.99040
 Alpha virt. eigenvalues --    1.01105   1.01105   1.08530   1.10818   1.10899

 Mulliken charges and spin densities:
               1          2
     1  O   -0.173538   1.352615
     2  O   -0.326462   1.147385
     3  O   -0.326462   1.147385
     4  O   -0.173538   1.352615
 Sum of Mulliken charges =  -1.00000   5.00000

 Dipole moment (field-independent basis, Debye):
    X=             -0.0000    Y=              0.0000    Z=             -0.0000  Tot=              0.0000
 Quadrupole moment (field-independent basis, Debye-Ang):
   XX=            -22.1936   YY=            -22.1936   ZZ=            -61.8673
   XY=             -0.0000   XZ=              0.0000   YZ=             -0.0000

 33\MP4SDQ=-300.0077593\CCSD=-299.9942249\CCSD(T)=-300.0462965\RMSD=8.7
 Normal termination of Gaussian 16 at Sun Jan 15 05:30:33 2023.
