 Gaussian 16, Revision A.03,
 Gaussian 16:  ES64L-G16RevA.03 25-Dec-2016

 ---------------------------------------------------------------
 #p ROCCSD(T)/cc-pVTZ Guess=Read SCF=(VeryTight,CDIIS,VShift=10)
 ---------------------------------------------------------------

 ---------
 O2_O2_252
 ---------
 Symbolic Z-matrix:
 Charge = -1 Multiplicity = 6

                         Standard orientation:
 ---------------------------------------------------------------------
 Center     Atomic      Atomic             Coordinates (Angstroms)
 Number     Number       Type             X           Y           Z
 ---------------------------------------------------------------------
      1          8           0        0.000000    0.000000    2.576557
      2          8           0        0.000000    0.000000    3.928937
      3          8           0        0.000000    0.000000   -3.928937
      4          8           0        0.000000    0.000000   -2.576557
 ---------------------------------------------------------------------

 SCF Done:  E(ROHF) =  -298.983082854     A.U. after    9 cycles
 E2 =    -0.1078212471D+01 EUMP2 =    -0.30006129532516D+03
 CCSD(T)
 CCSD(T)= -0.30003117552D+03

 The electronic state is 6-SGG.
 Alpha  occ. eigenvalues --  -20.50533 -20.50533 -20.48528 -20.48528  -1.36763
 Alpha  occ. eigenvalues --   -1.36763  -1.00853  -1.00672  -0.52920  -0.52920
 Alpha  occ. eigenvalues --   -0.52919  -0.52919  -0.52202  -0.51969  -0.33011
 Alpha  occ. eigenvalues --   -0.33011  -0.33010  -0.33010   0.19271
 Alpha virt. eigenvalues --    0.27813   0.84809   0.85557   0.89631   0.89631
 Alpha virt. eigenvalues --    0.89646   0.89646   0.94096   0.94690   0.98917
 Alpha virt. eigenvalues --    0.98917   0.98960   0.98960   1.09976   1.09979

 Mulliken charges and spin densities:
               1          2
     1  O   -0.200611   1.307447
     2  O   -0.299389   1.192553
     3  O   -0.299389   1.192553
     4  O   -0.200611   1.307447
 Sum of Mulliken charges =  -1.00000   5.00000

 Dipole moment (field-independent basis, Debye):
    X=             -0.0000    Y=             -0.0000    Z=              0.0000  Tot=              0.0000
 Quadrupole moment (field-independent basis, Debye-Ang):
   XX=            -22.1642   YY=            -22.1642   ZZ=            -82.5919
   XY=             -0.0000   XZ=              0.0000   YZ=             -0.0000

 P4SDQ=-299.9912925\CCSD=-299.9789149\CCSD(T)=-300.0311755\RMSD=9.919e-
 Normal termination of Gaussian 16 at Mon Jan 16 04:32:56 2023.
