 Gaussian 16, Revision A.03,
 Gaussian 16:  ES64L-G16RevA.03 25-Dec-2016

 ---------------------------------------------------------------
 #p ROCCSD(T)/cc-pVTZ Guess=Read SCF=(VeryTight,CDIIS,VShift=10)
 ---------------------------------------------------------------

 --------
 O2_O2_31
 --------
 Symbolic Z-matrix:
 Charge = -1 Multiplicity = 6

                         Standard orientation:
 ---------------------------------------------------------------------
 Center     Atomic      Atomic             Coordinates (Angstroms)
 Number     Number       Type             X           Y           Z
 ---------------------------------------------------------------------
      1          8           0        0.000000    0.000000    1.012034
      2          8           0        0.000000    0.000000    2.364414
      3          8           0        0.000000    0.000000   -2.364414
      4          8           0        0.000000    0.000000   -1.012034
 ---------------------------------------------------------------------

 SCF Done:  E(ROHF) =  -298.989551895     A.U. after   11 cycles
 E2 =    -0.1080811458D+01 EUMP2 =    -0.30007036335356D+03
 CCSD(T)
 CCSD(T)= -0.30004324555D+03

 The electronic state is 6-SGG.
 Alpha  occ. eigenvalues --  -20.45049 -20.45044 -20.43822 -20.43821  -1.33018
 Alpha  occ. eigenvalues --   -1.31904  -0.99450  -0.94297  -0.52955  -0.49143
 Alpha  occ. eigenvalues --   -0.49143  -0.47610  -0.47610  -0.42073  -0.29832
 Alpha  occ. eigenvalues --   -0.29832  -0.27186  -0.27186   0.15266
 Alpha virt. eigenvalues --    0.44213   0.87023   0.90079   0.90606   0.90606
 Alpha virt. eigenvalues --    0.94782   0.94782   0.98512   0.98512   1.11760
 Alpha virt. eigenvalues --    1.12569   1.15644   1.15644   1.16788   1.63040

 Mulliken charges and spin densities:
               1          2
     1  O   -0.167643   1.227456
     2  O   -0.332357   1.272544
     3  O   -0.332357   1.272544
     4  O   -0.167643   1.227456
 Sum of Mulliken charges =  -1.00000   5.00000

 Dipole moment (field-independent basis, Debye):
    X=             -0.0000    Y=              0.0000    Z=             -0.0000  Tot=              0.0000
 Quadrupole moment (field-independent basis, Debye-Ang):
   XX=            -22.1761   YY=            -22.1761   ZZ=            -45.1172
   XY=             -0.0000   XZ=              0.0000   YZ=             -0.0000

 4\MP4SDQ=-300.0033629\CCSD=-299.989681\CCSD(T)=-300.0432455\RMSD=6.580
 Normal termination of Gaussian 16 at Sun Jan 15 00:28:33 2023.
