 Gaussian 16, Revision A.03,
 Gaussian 16:  ES64L-G16RevA.03 25-Dec-2016

 ---------------------------------------------------------------
 #p ROCCSD(T)/cc-pVTZ Guess=Read SCF=(VeryTight,CDIIS,VShift=10)
 ---------------------------------------------------------------

 ---------
 O2_O2_128
 ---------
 Symbolic Z-matrix:
 Charge = -1 Multiplicity = 6

                         Standard orientation:
 ---------------------------------------------------------------------
 Center     Atomic      Atomic             Coordinates (Angstroms)
 Number     Number       Type             X           Y           Z
 ---------------------------------------------------------------------
      1          8           0        0.000000    0.000000    1.698725
      2          8           0        0.000000    0.000000    3.051105
      3          8           0        0.000000    0.000000   -3.051105
      4          8           0        0.000000    0.000000   -1.698725
 ---------------------------------------------------------------------

 SCF Done:  E(ROHF) =  -299.004033776     A.U. after   11 cycles
 E2 =    -0.1073832481D+01 EUMP2 =    -0.30007786625730D+03
 CCSD(T)
 CCSD(T)= -0.30005115707D+03

 The electronic state is 6-SGG.
 Alpha  occ. eigenvalues --  -20.51139 -20.51138 -20.46776 -20.46775  -1.35831
 Alpha  occ. eigenvalues --   -1.35803  -0.99727  -0.99383  -0.52195  -0.52195
 Alpha  occ. eigenvalues --   -0.52126  -0.52126  -0.50979  -0.49661  -0.31971
 Alpha  occ. eigenvalues --   -0.31971  -0.31862  -0.31862   0.17520
 Alpha virt. eigenvalues --    0.34301   0.78080   0.89907   0.89907   0.89919
 Alpha virt. eigenvalues --    0.91471   0.91471   0.92297   0.98739   0.98739
 Alpha virt. eigenvalues --    1.02264   1.02264   1.10978   1.11181   1.16535

 Mulliken charges and spin densities:
               1          2
     1  O   -0.165050   1.367464
     2  O   -0.334950   1.132536
     3  O   -0.334950   1.132536
     4  O   -0.165050   1.367464
 Sum of Mulliken charges =  -1.00000   5.00000

 Dipole moment (field-independent basis, Debye):
    X=             -0.0000    Y=              0.0000    Z=              0.0000  Tot=              0.0000
 Quadrupole moment (field-independent basis, Debye-Ang):
   XX=            -22.1979   YY=            -22.1979   ZZ=            -58.6560
   XY=             -0.0000   XZ=              0.0000   YZ=             -0.0000

 \MP4SDQ=-300.0129336\CCSD=-299.9990649\CCSD(T)=-300.0511571\RMSD=5.741
 Normal termination of Gaussian 16 at Sun Jan 15 04:41:14 2023.
