 Gaussian 16, Revision A.03,
 Gaussian 16:  ES64L-G16RevA.03 25-Dec-2016

 ---------------------------------------------------------------
 #p ROCCSD(T)/cc-pVTZ Guess=Read SCF=(VeryTight,CDIIS,VShift=10)
 ---------------------------------------------------------------

 --------
 O2_O2_67
 --------
 Symbolic Z-matrix:
 Charge = -1 Multiplicity = 6

                         Standard orientation:
 ---------------------------------------------------------------------
 Center     Atomic      Atomic             Coordinates (Angstroms)
 Number     Number       Type             X           Y           Z
 ---------------------------------------------------------------------
      1          8           0        0.000000    0.000000    1.266888
      2          8           0        0.000000    0.000000    2.619268
      3          8           0        0.000000    0.000000   -2.619268
      4          8           0        0.000000    0.000000   -1.266888
 ---------------------------------------------------------------------

 SCF Done:  E(ROHF) =  -299.007624157     A.U. after   14 cycles
 E2 =    -0.1076308632D+01 EUMP2 =    -0.30008393278819D+03
 CCSD(T)
 CCSD(T)= -0.30005714457D+03

 The electronic state is 6-SGG.
 Alpha  occ. eigenvalues --  -20.48911 -20.48908 -20.44617 -20.44617  -1.34193
 Alpha  occ. eigenvalues --   -1.33910  -0.98705  -0.97119  -0.51124  -0.50488
 Alpha  occ. eigenvalues --   -0.50488  -0.49955  -0.49955  -0.46442  -0.30438
 Alpha  occ. eigenvalues --   -0.30438  -0.29695  -0.29695   0.16254
 Alpha virt. eigenvalues --    0.38917   0.88641   0.88808   0.88808   0.91800
 Alpha virt. eigenvalues --    0.93385   0.93804   0.93804   0.97963   0.97963
 Alpha virt. eigenvalues --    1.09695   1.09695   1.12051   1.12767   1.48917

 Mulliken charges and spin densities:
               1          2
     1  O   -0.147143   1.341643
     2  O   -0.352857   1.158357
     3  O   -0.352857   1.158357
     4  O   -0.147143   1.341643
 Sum of Mulliken charges =  -1.00000   5.00000

 Dipole moment (field-independent basis, Debye):
    X=             -0.0000    Y=             -0.0000    Z=             -0.0000  Tot=              0.0000
 Quadrupole moment (field-independent basis, Debye-Ang):
   XX=            -22.1968   YY=            -22.1968   ZZ=            -50.2406
   XY=             -0.0000   XZ=              0.0000   YZ=             -0.0000

 8\MP4SDQ=-300.0184288\CCSD=-300.0044423\CCSD(T)=-300.0571446\RMSD=2.17
 Normal termination of Gaussian 16 at Sun Jan 15 02:01:12 2023.
