 Gaussian 16, Revision A.03,
 Gaussian 16:  ES64L-G16RevA.03 25-Dec-2016

 ---------------------------------------------------------------
 #p ROCCSD(T)/cc-pVTZ Guess=Read SCF=(VeryTight,CDIIS,VShift=10)
 ---------------------------------------------------------------

 --------
 O2_O2_34
 --------
 Symbolic Z-matrix:
 Charge = -1 Multiplicity = 6

                         Standard orientation:
 ---------------------------------------------------------------------
 Center     Atomic      Atomic             Coordinates (Angstroms)
 Number     Number       Type             X           Y           Z
 ---------------------------------------------------------------------
      1          8           0        0.000000    0.000000    1.033272
      2          8           0        0.000000    0.000000    2.385652
      3          8           0        0.000000    0.000000   -2.385652
      4          8           0        0.000000    0.000000   -1.033272
 ---------------------------------------------------------------------

 SCF Done:  E(ROHF) =  -298.992773478     A.U. after   15 cycles
 E2 =    -0.1080718682D+01 EUMP2 =    -0.30007349216012D+03
 CCSD(T)
 CCSD(T)= -0.30004601624D+03

 The electronic state is 6-SGG.
 Alpha  occ. eigenvalues --  -20.45511 -20.45506 -20.43858 -20.43858  -1.33111
 Alpha  occ. eigenvalues --   -1.32112  -0.99283  -0.94629  -0.52722  -0.49251
 Alpha  occ. eigenvalues --   -0.49251  -0.47832  -0.47832  -0.42598  -0.29857
 Alpha  occ. eigenvalues --   -0.29857  -0.27494  -0.27494   0.15384
 Alpha virt. eigenvalues --    0.43535   0.87204   0.90278   0.90284   0.90284
 Alpha virt. eigenvalues --    0.94726   0.94726   0.98401   0.98401   1.11078
 Alpha virt. eigenvalues --    1.12537   1.15137   1.15137   1.15579   1.62053

 Mulliken charges and spin densities:
               1          2
     1  O   -0.163480   1.242474
     2  O   -0.336520   1.257526
     3  O   -0.336520   1.257526
     4  O   -0.163480   1.242474
 Sum of Mulliken charges =  -1.00000   5.00000

 Dipole moment (field-independent basis, Debye):
    X=             -0.0000    Y=              0.0000    Z=              0.0000  Tot=              0.0000
 Quadrupole moment (field-independent basis, Debye-Ang):
   XX=            -22.1814   YY=            -22.1814   ZZ=            -45.6035
   XY=             -0.0000   XZ=              0.0000   YZ=             -0.0000

 2\MP4SDQ=-300.0062922\CCSD=-299.9925459\CCSD(T)=-300.0460162\RMSD=1.00
 Normal termination of Gaussian 16 at Sun Jan 15 00:35:56 2023.
