 Gaussian 16, Revision A.03,
 Gaussian 16:  ES64L-G16RevA.03 25-Dec-2016

 ---------------------------------------------------------------
 #p ROCCSD(T)/cc-pVTZ Guess=Read SCF=(VeryTight,CDIIS,VShift=10)
 ---------------------------------------------------------------

 --------
 O2_O2_75
 --------
 Symbolic Z-matrix:
 Charge = -1 Multiplicity = 6

                         Standard orientation:
 ---------------------------------------------------------------------
 Center     Atomic      Atomic             Coordinates (Angstroms)
 Number     Number       Type             X           Y           Z
 ---------------------------------------------------------------------
      1          8           0        0.000000    0.000000    1.323523
      2          8           0        0.000000    0.000000    2.675903
      3          8           0        0.000000    0.000000   -2.675903
      4          8           0        0.000000    0.000000   -1.323523
 ---------------------------------------------------------------------

 SCF Done:  E(ROHF) =  -299.008420093     A.U. after   20 cycles
 E2 =    -0.1075420532D+01 EUMP2 =    -0.30008384062561D+03
 CCSD(T)
 CCSD(T)= -0.30005737199D+03

 The electronic state is 6-SGG.
 Alpha  occ. eigenvalues --  -20.49445 -20.49443 -20.44881 -20.44881  -1.34456
 Alpha  occ. eigenvalues --   -1.34250  -0.98775  -0.97531  -0.50955  -0.50780
 Alpha  occ. eigenvalues --   -0.50780  -0.50368  -0.50368  -0.47037  -0.30641
 Alpha  occ. eigenvalues --   -0.30641  -0.30070  -0.30070   0.16411
 Alpha virt. eigenvalues --    0.38221   0.88880   0.88880   0.88906   0.89535
 Alpha virt. eigenvalues --    0.92096   0.93513   0.93513   0.97980   0.97980
 Alpha virt. eigenvalues --    1.08440   1.08440   1.11908   1.12524   1.45003

 Mulliken charges and spin densities:
               1          2
     1  O   -0.147496   1.354087
     2  O   -0.352504   1.145913
     3  O   -0.352504   1.145913
     4  O   -0.147496   1.354087
 Sum of Mulliken charges =  -1.00000   5.00000

 Dipole moment (field-independent basis, Debye):
    X=             -0.0000    Y=             -0.0000    Z=             -0.0000  Tot=              0.0000
 Quadrupole moment (field-independent basis, Debye-Ang):
   XX=            -22.1965   YY=            -22.1965   ZZ=            -51.2663
   XY=             -0.0000   XZ=              0.0000   YZ=             -0.0000

 6\MP4SDQ=-300.0188224\CCSD=-300.0047964\CCSD(T)=-300.057372\RMSD=4.194
 Normal termination of Gaussian 16 at Sun Jan 15 02:23:31 2023.
