 Gaussian 16, Revision A.03,
 Gaussian 16:  ES64L-G16RevA.03 25-Dec-2016

 ---------------------------------------------------------------
 #p ROCCSD(T)/cc-pVTZ Guess=Read SCF=(VeryTight,CDIIS,VShift=10)
 ---------------------------------------------------------------

 ---------
 O2_O2_187
 ---------
 Symbolic Z-matrix:
 Charge = -1 Multiplicity = 6

                         Standard orientation:
 ---------------------------------------------------------------------
 Center     Atomic      Atomic             Coordinates (Angstroms)
 Number     Number       Type             X           Y           Z
 ---------------------------------------------------------------------
      1          8           0        0.000000    0.000000    2.116403
      2          8           0        0.000000    0.000000    3.468783
      3          8           0        0.000000    0.000000   -3.468783
      4          8           0        0.000000    0.000000   -2.116403
 ---------------------------------------------------------------------

 SCF Done:  E(ROHF) =  -298.989207352     A.U. after   13 cycles
 E2 =    -0.1076490569D+01 EUMP2 =    -0.30006569792102D+03
 CCSD(T)
 CCSD(T)= -0.30003690825D+03

 The electronic state is 6-SGG.
 Alpha  occ. eigenvalues --  -20.50579 -20.50578 -20.47793 -20.47793  -1.36294
 Alpha  occ. eigenvalues --   -1.36290  -1.00315  -1.00115  -0.52512  -0.52512
 Alpha  occ. eigenvalues --   -0.52503  -0.52503  -0.51607  -0.51120  -0.32511
 Alpha  occ. eigenvalues --   -0.32511  -0.32495  -0.32495   0.18804
 Alpha virt. eigenvalues --    0.30154   0.82368   0.88439   0.90070   0.90070
 Alpha virt. eigenvalues --    0.90287   0.90287   0.93323   0.98554   0.99289
 Alpha virt. eigenvalues --    0.99289   0.99821   0.99821   1.10500   1.10517

 Mulliken charges and spin densities:
               1          2
     1  O   -0.186491   1.326974
     2  O   -0.313509   1.173026
     3  O   -0.313509   1.173026
     4  O   -0.186491   1.326974
 Sum of Mulliken charges =  -1.00000   5.00000

 Dipole moment (field-independent basis, Debye):
    X=             -0.0000    Y=              0.0000    Z=              0.0000  Tot=              0.0000
 Quadrupole moment (field-independent basis, Debye-Ang):
   XX=            -22.1778   YY=            -22.1778   ZZ=            -69.3560
   XY=             -0.0000   XZ=              0.0000   YZ=             -0.0000

 9\MP4SDQ=-299.997578\CCSD=-299.9847458\CCSD(T)=-300.0369083\RMSD=6.784
 Normal termination of Gaussian 16 at Sun Jan 15 07:19:36 2023.
