 Gaussian 16, Revision A.03,
 Gaussian 16:  ES64L-G16RevA.03 25-Dec-2016

 ---------------------------------------------------------------
 #p ROCCSD(T)/cc-pVTZ Guess=Read SCF=(VeryTight,CDIIS,VShift=10)
 ---------------------------------------------------------------

 ---------
 O2_O2_190
 ---------
 Symbolic Z-matrix:
 Charge = -1 Multiplicity = 6

                         Standard orientation:
 ---------------------------------------------------------------------
 Center     Atomic      Atomic             Coordinates (Angstroms)
 Number     Number       Type             X           Y           Z
 ---------------------------------------------------------------------
      1          8           0        0.000000    0.000000    2.137641
      2          8           0        0.000000    0.000000    3.490021
      3          8           0        0.000000    0.000000   -3.490021
      4          8           0        0.000000    0.000000   -2.137641
 ---------------------------------------------------------------------

 SCF Done:  E(ROHF) =  -298.988661061     A.U. after   12 cycles
 E2 =    -0.1076601924D+01 EUMP2 =    -0.30006526298403D+03
 CCSD(T)
 CCSD(T)= -0.30003639664D+03

 The electronic state is 6-SGG.
 Alpha  occ. eigenvalues --  -20.50558 -20.50557 -20.47825 -20.47825  -1.36311
 Alpha  occ. eigenvalues --   -1.36308  -1.00338  -1.00140  -0.52525  -0.52525
 Alpha  occ. eigenvalues --   -0.52517  -0.52517  -0.51636  -0.51170  -0.32530
 Alpha  occ. eigenvalues --   -0.32530  -0.32516  -0.32516   0.18845
 Alpha virt. eigenvalues --    0.29998   0.82617   0.88281   0.90058   0.90058
 Alpha virt. eigenvalues --    0.90251   0.90251   0.93396   0.98143   0.99287
 Alpha virt. eigenvalues --    0.99287   0.99762   0.99762   1.10478   1.10492

 Mulliken charges and spin densities:
               1          2
     1  O   -0.187242   1.325677
     2  O   -0.312758   1.174323
     3  O   -0.312758   1.174323
     4  O   -0.187242   1.325677
 Sum of Mulliken charges =  -1.00000   5.00000

 Dipole moment (field-independent basis, Debye):
    X=             -0.0000    Y=              0.0000    Z=              0.0000  Tot=              0.0000
 Quadrupole moment (field-independent basis, Debye-Ang):
   XX=            -22.1767   YY=            -22.1767   ZZ=            -69.9397
   XY=             -0.0000   XZ=              0.0000   YZ=             -0.0000

 \MP4SDQ=-299.9970195\CCSD=-299.9842262\CCSD(T)=-300.0363966\RMSD=9.016
 Normal termination of Gaussian 16 at Sun Jan 15 07:27:16 2023.
