 Gaussian 16, Revision A.03,
 Gaussian 16:  ES64L-G16RevA.03 25-Dec-2016

 ---------------------------------------------------------------
 #p ROCCSD(T)/cc-pVTZ Guess=Read SCF=(VeryTight,CDIIS,VShift=10)
 ---------------------------------------------------------------

 --------
 O2_O2_36
 --------
 Symbolic Z-matrix:
 Charge = -1 Multiplicity = 6

                         Standard orientation:
 ---------------------------------------------------------------------
 Center     Atomic      Atomic             Coordinates (Angstroms)
 Number     Number       Type             X           Y           Z
 ---------------------------------------------------------------------
      1          8           0        0.000000    0.000000    1.047430
      2          8           0        0.000000    0.000000    2.399810
      3          8           0        0.000000    0.000000   -2.399810
      4          8           0        0.000000    0.000000   -1.047430
 ---------------------------------------------------------------------

 SCF Done:  E(ROHF) =  -298.994654541     A.U. after   11 cycles
 E2 =    -0.1080575548D+01 EUMP2 =    -0.30007523008921D+03
 CCSD(T)
 CCSD(T)= -0.30004760261D+03

 The electronic state is 6-SGG.
 Alpha  occ. eigenvalues --  -20.45800 -20.45795 -20.43886 -20.43885  -1.33174
 Alpha  occ. eigenvalues --   -1.32246  -0.99186  -0.94837  -0.52575  -0.49325
 Alpha  occ. eigenvalues --   -0.49325  -0.47979  -0.47979  -0.42926  -0.29877
 Alpha  occ. eigenvalues --   -0.29877  -0.27684  -0.27684   0.15456
 Alpha virt. eigenvalues --    0.43118   0.87319   0.90086   0.90086   0.90406
 Alpha virt. eigenvalues --    0.94686   0.94686   0.98338   0.98338   1.10408
 Alpha virt. eigenvalues --    1.12514   1.14800   1.14800   1.14961   1.61374

 Mulliken charges and spin densities:
               1          2
     1  O   -0.161055   1.251741
     2  O   -0.338945   1.248259
     3  O   -0.338945   1.248259
     4  O   -0.161055   1.251741
 Sum of Mulliken charges =  -1.00000   5.00000

 Dipole moment (field-independent basis, Debye):
    X=             -0.0000    Y=              0.0000    Z=              0.0000  Tot=              0.0000
 Quadrupole moment (field-independent basis, Debye-Ang):
   XX=            -22.1843   YY=            -22.1843   ZZ=            -45.9199
   XY=             -0.0000   XZ=              0.0000   YZ=             -0.0000

 P4SDQ=-300.0079728\CCSD=-299.9941929\CCSD(T)=-300.0476026\RMSD=1.706e-
 Normal termination of Gaussian 16 at Sun Jan 15 00:41:00 2023.
