 Gaussian 16, Revision A.03,
 Gaussian 16:  ES64L-G16RevA.03 25-Dec-2016

 ---------------------------------------------------------------
 #p ROCCSD(T)/cc-pVTZ Guess=Read SCF=(VeryTight,CDIIS,VShift=10)
 ---------------------------------------------------------------

 ---------
 O2_O2_297
 ---------
 Symbolic Z-matrix:
 Charge = -1 Multiplicity = 6

                         Standard orientation:
 ---------------------------------------------------------------------
 Center     Atomic      Atomic             Coordinates (Angstroms)
 Number     Number       Type             X           Y           Z
 ---------------------------------------------------------------------
      1          8           0        0.000000    0.000000    2.895125
      2          8           0        0.000000    0.000000    4.247505
      3          8           0        0.000000    0.000000   -4.247505
      4          8           0        0.000000    0.000000   -2.895125
 ---------------------------------------------------------------------

 SCF Done:  E(ROHF) =  -298.982358010     A.U. after   11 cycles
 E2 =    -0.1078894845D+01 EUMP2 =    -0.30006125285477D+03
 CCSD(T)
 CCSD(T)= -0.30003047423D+03

 The electronic state is 6-SGG.
 Alpha  occ. eigenvalues --  -20.50709 -20.50709 -20.49037 -20.49037  -1.37110
 Alpha  occ. eigenvalues --   -1.37109  -1.01218  -1.01040  -0.53251  -0.53251
 Alpha  occ. eigenvalues --   -0.53251  -0.53251  -0.52554  -0.52389  -0.33380
 Alpha  occ. eigenvalues --   -0.33380  -0.33380  -0.33380   0.19333
 Alpha virt. eigenvalues --    0.26913   0.84698   0.84809   0.89287   0.89287
 Alpha virt. eigenvalues --    0.89290   0.89290   0.93872   0.94079   0.98562
 Alpha virt. eigenvalues --    0.98562   0.98575   0.98575   1.09628   1.09629

 Mulliken charges and spin densities:
               1          2
     1  O   -0.208578   1.298224
     2  O   -0.291422   1.201776
     3  O   -0.291422   1.201776
     4  O   -0.208578   1.298224
 Sum of Mulliken charges =  -1.00000   5.00000

 Dipole moment (field-independent basis, Debye):
    X=             -0.0000    Y=              0.0000    Z=             -0.0000  Tot=              0.0000
 Quadrupole moment (field-independent basis, Debye-Ang):
   XX=            -22.1616   YY=            -22.1616   ZZ=            -92.7303
   XY=             -0.0000   XZ=              0.0000   YZ=             -0.0000

 Q=-299.9904996\CCSD=-299.9782025\CCSD(T)=-300.0304742\RMSD=6.534e-09\P
 Normal termination of Gaussian 16 at Mon Jan 16 05:26:33 2023.
