 Gaussian 16, Revision A.03,
 Gaussian 16:  ES64L-G16RevA.03 25-Dec-2016

 ---------------------------------------------------------------
 #p ROCCSD(T)/cc-pVTZ Guess=Read SCF=(VeryTight,CDIIS,VShift=10)
 ---------------------------------------------------------------

 --------
 O2_O2_86
 --------
 Symbolic Z-matrix:
 Charge = -1 Multiplicity = 6

                         Standard orientation:
 ---------------------------------------------------------------------
 Center     Atomic      Atomic             Coordinates (Angstroms)
 Number     Number       Type             X           Y           Z
 ---------------------------------------------------------------------
      1          8           0        0.000000    0.000000    1.401395
      2          8           0        0.000000    0.000000    2.753775
      3          8           0        0.000000    0.000000   -2.753775
      4          8           0        0.000000    0.000000   -1.401395
 ---------------------------------------------------------------------

 SCF Done:  E(ROHF) =  -299.008786541     A.U. after   14 cycles
 E2 =    -0.1074479115D+01 EUMP2 =    -0.30008326565591D+03
 CCSD(T)
 CCSD(T)= -0.30005709512D+03

 The electronic state is 6-SGG.
 Alpha  occ. eigenvalues --  -20.50062 -20.50060 -20.45276 -20.45276  -1.34809
 Alpha  occ. eigenvalues --   -1.34674  -0.98936  -0.98031  -0.51164  -0.51164
 Alpha  occ. eigenvalues --   -0.50877  -0.50877  -0.50823  -0.47739  -0.30941
 Alpha  occ. eigenvalues --   -0.30941  -0.30540  -0.30540   0.16618
 Alpha virt. eigenvalues --    0.37373   0.85306   0.89092   0.89092   0.89244
 Alpha virt. eigenvalues --    0.92213   0.93084   0.93084   0.98060   0.98060
 Alpha virt. eigenvalues --    1.06815   1.06815   1.11700   1.12200   1.39152

 Mulliken charges and spin densities:
               1          2
     1  O   -0.149299   1.366353
     2  O   -0.350701   1.133647
     3  O   -0.350701   1.133647
     4  O   -0.149299   1.366353
 Sum of Mulliken charges =  -1.00000   5.00000

 Dipole moment (field-independent basis, Debye):
    X=             -0.0000    Y=              0.0000    Z=              0.0000  Tot=              0.0000
 Quadrupole moment (field-independent basis, Debye-Ang):
   XX=            -22.1964   YY=            -22.1964   ZZ=            -52.6779
   XY=             -0.0000   XZ=              0.0000   YZ=             -0.0000

 7\MP4SDQ=-300.0187423\CCSD=-300.0046697\CCSD(T)=-300.0570951\RMSD=3.00
 Normal termination of Gaussian 16 at Sun Jan 15 02:51:21 2023.
