 Gaussian 16, Revision A.03,
 Gaussian 16:  ES64L-G16RevA.03 25-Dec-2016

 ---------------------------------------------------------------
 #p ROCCSD(T)/cc-pVTZ Guess=Read SCF=(VeryTight,CDIIS,VShift=10)
 ---------------------------------------------------------------

 ---------
 O2_O2_234
 ---------
 Symbolic Z-matrix:
 Charge = -1 Multiplicity = 6

                         Standard orientation:
 ---------------------------------------------------------------------
 Center     Atomic      Atomic             Coordinates (Angstroms)
 Number     Number       Type             X           Y           Z
 ---------------------------------------------------------------------
      1          8           0        0.000000    0.000000    2.449130
      2          8           0        0.000000    0.000000    3.801510
      3          8           0        0.000000    0.000000   -3.801510
      4          8           0        0.000000    0.000000   -2.449130
 ---------------------------------------------------------------------

 SCF Done:  E(ROHF) =  -298.983855888     A.U. after   11 cycles
 E2 =    -0.1077853534D+01 EUMP2 =    -0.30006170942206D+03
 CCSD(T)
 CCSD(T)= -0.30003190420D+03

 The electronic state is 6-SGG.
 Alpha  occ. eigenvalues --  -20.50486 -20.50485 -20.48316 -20.48316  -1.36621
 Alpha  occ. eigenvalues --   -1.36620  -1.00698  -1.00515  -0.52788  -0.52788
 Alpha  occ. eigenvalues --   -0.52786  -0.52786  -0.52047  -0.51771  -0.32860
 Alpha  occ. eigenvalues --   -0.32860  -0.32857  -0.32857   0.19210
 Alpha virt. eigenvalues --    0.28288   0.84623   0.86109   0.89773   0.89773
 Alpha virt. eigenvalues --    0.89804   0.89804   0.94070   0.95134   0.99059
 Alpha virt. eigenvalues --    0.99059   0.99143   0.99143   1.10124   1.10127

 Mulliken charges and spin densities:
               1          2
     1  O   -0.197018   1.311759
     2  O   -0.302982   1.188241
     3  O   -0.302982   1.188241
     4  O   -0.197018   1.311759
 Sum of Mulliken charges =  -1.00000   5.00000

 Dipole moment (field-independent basis, Debye):
    X=             -0.0000    Y=             -0.0000    Z=              0.0000  Tot=              0.0000
 Quadrupole moment (field-independent basis, Debye-Ang):
   XX=            -22.1662   YY=            -22.1662   ZZ=            -78.7842
   XY=             -0.0000   XZ=              0.0000   YZ=             -0.0000

 P4SDQ=-299.9920982\CCSD=-299.9796564\CCSD(T)=-300.0319042\RMSD=1.002e-
 Normal termination of Gaussian 16 at Mon Jan 16 04:11:54 2023.
