 Gaussian 16, Revision A.03,
 Gaussian 16:  ES64L-G16RevA.03 25-Dec-2016

 ---------------------------------------------------------------
 #p ROCCSD(T)/cc-pVTZ Guess=Read SCF=(VeryTight,CDIIS,VShift=10)
 ---------------------------------------------------------------

 ---------
 O2_O2_129
 ---------
 Symbolic Z-matrix:
 Charge = -1 Multiplicity = 6

                         Standard orientation:
 ---------------------------------------------------------------------
 Center     Atomic      Atomic             Coordinates (Angstroms)
 Number     Number       Type             X           Y           Z
 ---------------------------------------------------------------------
      1          8           0        0.000000    0.000000    1.705804
      2          8           0        0.000000    0.000000    3.058184
      3          8           0        0.000000    0.000000   -3.058184
      4          8           0        0.000000    0.000000   -1.705804
 ---------------------------------------------------------------------

 SCF Done:  E(ROHF) =  -299.003804307     A.U. after   13 cycles
 E2 =    -0.1073866752D+01 EUMP2 =    -0.30007767105922D+03
 CCSD(T)
 CCSD(T)= -0.30005092366D+03

 The electronic state is 6-SGG.
 Alpha  occ. eigenvalues --  -20.51140 -20.51139 -20.46805 -20.46805  -1.35846
 Alpha  occ. eigenvalues --   -1.35819  -0.99743  -0.99404  -0.52208  -0.52208
 Alpha  occ. eigenvalues --   -0.52141  -0.52141  -0.50989  -0.49696  -0.31988
 Alpha  occ. eigenvalues --   -0.31988  -0.31882  -0.31882   0.17545
 Alpha virt. eigenvalues --    0.34223   0.78062   0.89919   0.89919   0.89919
 Alpha virt. eigenvalues --    0.91439   0.91439   0.92301   0.98756   0.98756
 Alpha virt. eigenvalues --    1.02191   1.02191   1.10964   1.11163   1.16068

 Mulliken charges and spin densities:
               1          2
     1  O   -0.165513   1.366783
     2  O   -0.334487   1.133217
     3  O   -0.334487   1.133217
     4  O   -0.165513   1.366783
 Sum of Mulliken charges =  -1.00000   5.00000

 Dipole moment (field-independent basis, Debye):
    X=             -0.0000    Y=              0.0000    Z=             -0.0000  Tot=              0.0000
 Quadrupole moment (field-independent basis, Debye-Ang):
   XX=            -22.1978   YY=            -22.1978   ZZ=            -58.8168
   XY=             -0.0000   XZ=              0.0000   YZ=             -0.0000

 11\MP4SDQ=-300.0126884\CCSD=-299.9988344\CCSD(T)=-300.0509237\RMSD=7.9
 Normal termination of Gaussian 16 at Sun Jan 15 04:43:48 2023.
