 Gaussian 16, Revision A.03,
 Gaussian 16:  ES64L-G16RevA.03 25-Dec-2016

 ---------------------------------------------------------------
 #p ROCCSD(T)/cc-pVTZ Guess=Read SCF=(VeryTight,CDIIS,VShift=10)
 ---------------------------------------------------------------

 ---------
 O2_O2_120
 ---------
 Symbolic Z-matrix:
 Charge = -1 Multiplicity = 6

                         Standard orientation:
 ---------------------------------------------------------------------
 Center     Atomic      Atomic             Coordinates (Angstroms)
 Number     Number       Type             X           Y           Z
 ---------------------------------------------------------------------
      1          8           0        0.000000    0.000000    1.642091
      2          8           0        0.000000    0.000000    2.994471
      3          8           0        0.000000    0.000000   -2.994471
      4          8           0        0.000000    0.000000   -1.642091
 ---------------------------------------------------------------------

 SCF Done:  E(ROHF) =  -299.005694656     A.U. after   14 cycles
 E2 =    -0.1073621015D+01 EUMP2 =    -0.30007931567067D+03
 CCSD(T)
 CCSD(T)= -0.30005288705D+03

 The electronic state is 6-SGG.
 Alpha  occ. eigenvalues --  -20.51096 -20.51094 -20.46525 -20.46525  -1.35693
 Alpha  occ. eigenvalues --   -1.35657  -0.99591  -0.99193  -0.52072  -0.52072
 Alpha  occ. eigenvalues --   -0.51981  -0.51981  -0.50902  -0.49365  -0.31817
 Alpha  occ. eigenvalues --   -0.31817  -0.31678  -0.31678   0.17325
 Alpha virt. eigenvalues --    0.34919   0.78451   0.89801   0.89801   0.89888
 Alpha virt. eigenvalues --    0.91741   0.91741   0.92278   0.98593   0.98593
 Alpha virt. eigenvalues --    1.02908   1.02908   1.11092   1.11334   1.20447

 Mulliken charges and spin densities:
               1          2
     1  O   -0.161378   1.372099
     2  O   -0.338622   1.127901
     3  O   -0.338622   1.127901
     4  O   -0.161378   1.372099
 Sum of Mulliken charges =  -1.00000   5.00000

 Dipole moment (field-independent basis, Debye):
    X=             -0.0000    Y=              0.0000    Z=              0.0000  Tot=              0.0000
 Quadrupole moment (field-independent basis, Debye-Ang):
   XX=            -22.1984   YY=            -22.1984   ZZ=            -57.4047
   XY=             -0.0000   XZ=              0.0000   YZ=             -0.0000

 57\MP4SDQ=-300.014734\CCSD=-300.0007629\CCSD(T)=-300.052887\RMSD=4.265
 Normal termination of Gaussian 16 at Sun Jan 15 04:21:08 2023.
