 Gaussian 16, Revision A.03,
 Gaussian 16:  ES64L-G16RevA.03 25-Dec-2016

 ---------------------------------------------------------------
 #p ROCCSD(T)/cc-pVTZ Guess=Read SCF=(VeryTight,CDIIS,VShift=10)
 ---------------------------------------------------------------

 ---------
 O2_O2_206
 ---------
 Symbolic Z-matrix:
 Charge = -1 Multiplicity = 6

                         Standard orientation:
 ---------------------------------------------------------------------
 Center     Atomic      Atomic             Coordinates (Angstroms)
 Number     Number       Type             X           Y           Z
 ---------------------------------------------------------------------
      1          8           0        0.000000    0.000000    2.250910
      2          8           0        0.000000    0.000000    3.603290
      3          8           0        0.000000    0.000000   -3.603290
      4          8           0        0.000000    0.000000   -2.250910
 ---------------------------------------------------------------------

 SCF Done:  E(ROHF) =  -298.986276082     A.U. after   13 cycles
 E2 =    -0.1077133389D+01 EUMP2 =    -0.30006340947077D+03
 CCSD(T)
 CCSD(T)= -0.30003416721D+03

 The electronic state is 6-SGG.
 Alpha  occ. eigenvalues --  -20.50487 -20.50486 -20.47998 -20.47997  -1.36414
 Alpha  occ. eigenvalues --   -1.36412  -1.00464  -1.00274  -0.52605  -0.52605
 Alpha  occ. eigenvalues --   -0.52601  -0.52601  -0.51791  -0.51414  -0.32639
 Alpha  occ. eigenvalues --   -0.32639  -0.32632  -0.32632   0.19026
 Alpha virt. eigenvalues --    0.29262   0.83686   0.87405   0.89972   0.89972
 Alpha virt. eigenvalues --    0.90074   0.90074   0.93744   0.96524   0.99237
 Alpha virt. eigenvalues --    0.99237   0.99494   0.99494   1.10355   1.10358

 Mulliken charges and spin densities:
               1          2
     1  O   -0.191004   1.319743
     2  O   -0.308996   1.180257
     3  O   -0.308996   1.180257
     4  O   -0.191004   1.319743
 Sum of Mulliken charges =  -1.00000   5.00000

 Dipole moment (field-independent basis, Debye):
    X=             -0.0000    Y=              0.0000    Z=              0.0000  Tot=              0.0000
 Quadrupole moment (field-independent basis, Debye-Ang):
   XX=            -22.1718   YY=            -22.1718   ZZ=            -73.0913
   XY=             -0.0000   XZ=              0.0000   YZ=             -0.0000

 95\MP4SDQ=-299.9945821\CCSD=-299.9819599\CCSD(T)=-300.0341672\RMSD=2.2
 Normal termination of Gaussian 16 at Sun Jan 15 08:10:28 2023.
