 Gaussian 16, Revision A.03,
 Gaussian 16:  ES64L-G16RevA.03 25-Dec-2016

 ---------------------------------------------------------------
 #p ROCCSD(T)/cc-pVTZ Guess=Read SCF=(VeryTight,CDIIS,VShift=10)
 ---------------------------------------------------------------

 ---------
 O2_O2_285
 ---------
 Symbolic Z-matrix:
 Charge = -1 Multiplicity = 6

                         Standard orientation:
 ---------------------------------------------------------------------
 Center     Atomic      Atomic             Coordinates (Angstroms)
 Number     Number       Type             X           Y           Z
 ---------------------------------------------------------------------
      1          8           0        0.000000    0.000000    2.810173
      2          8           0        0.000000    0.000000    4.162554
      3          8           0        0.000000    0.000000   -4.162554
      4          8           0        0.000000    0.000000   -2.810173
 ---------------------------------------------------------------------

 SCF Done:  E(ROHF) =  -298.982457303     A.U. after    9 cycles
 E2 =    -0.1078735406D+01 EUMP2 =    -0.30006119270907D+03
 CCSD(T)
 CCSD(T)= -0.30003057344D+03

 The electronic state is 6-SGG.
 Alpha  occ. eigenvalues --  -20.50659 -20.50659 -20.48907 -20.48907  -1.37020
 Alpha  occ. eigenvalues --   -1.37020  -1.01125  -1.00946  -0.53165  -0.53165
 Alpha  occ. eigenvalues --   -0.53165  -0.53165  -0.52465  -0.52286  -0.33285
 Alpha  occ. eigenvalues --   -0.33285  -0.33285  -0.33285   0.19324
 Alpha virt. eigenvalues --    0.27124   0.84767   0.84953   0.89375   0.89375
 Alpha virt. eigenvalues --    0.89380   0.89380   0.93951   0.94206   0.98654
 Alpha virt. eigenvalues --    0.98654   0.98670   0.98670   1.09717   1.09718

 Mulliken charges and spin densities:
               1          2
     1  O   -0.206609   1.300486
     2  O   -0.293391   1.199514
     3  O   -0.293391   1.199514
     4  O   -0.206609   1.300486
 Sum of Mulliken charges =  -1.00000   5.00000

 Dipole moment (field-independent basis, Debye):
    X=             -0.0000    Y=              0.0000    Z=              0.0000  Tot=              0.0000
 Quadrupole moment (field-independent basis, Debye-Ang):
   XX=            -22.1621   YY=            -22.1621   ZZ=            -89.9339
   XY=             -0.0000   XZ=              0.0000   YZ=             -0.0000

 P4SDQ=-299.9906154\CCSD=-299.9783032\CCSD(T)=-300.0305734\RMSD=6.932e-
 Normal termination of Gaussian 16 at Mon Jan 16 05:12:50 2023.
