 Gaussian 16, Revision A.03,
 Gaussian 16:  ES64L-G16RevA.03 25-Dec-2016

 ---------------------------------------------------------------
 #p ROCCSD(T)/cc-pVTZ Guess=Read SCF=(VeryTight,CDIIS,VShift=10)
 ---------------------------------------------------------------

 --------
 O2_O2_58
 --------
 Symbolic Z-matrix:
 Charge = -1 Multiplicity = 6

                         Standard orientation:
 ---------------------------------------------------------------------
 Center     Atomic      Atomic             Coordinates (Angstroms)
 Number     Number       Type             X           Y           Z
 ---------------------------------------------------------------------
      1          8           0        0.000000    0.000000    1.203175
      2          8           0        0.000000    0.000000    2.555555
      3          8           0        0.000000    0.000000   -2.555555
      4          8           0        0.000000    0.000000   -1.203175
 ---------------------------------------------------------------------

 SCF Done:  E(ROHF) =  -299.005934395     A.U. after   14 cycles
 E2 =    -0.1077508086D+01 EUMP2 =    -0.30008344248058D+03
 CCSD(T)
 CCSD(T)= -0.30005622505D+03

 The electronic state is 6-SGG.
 Alpha  occ. eigenvalues --  -20.48209 -20.48206 -20.44351 -20.44351  -1.33895
 Alpha  occ. eigenvalues --   -1.33493  -0.98697  -0.96592  -0.51402  -0.50154
 Alpha  occ. eigenvalues --   -0.50154  -0.49446  -0.49446  -0.45656  -0.30233
 Alpha  occ. eigenvalues --   -0.30233  -0.29228  -0.29228   0.16063
 Alpha virt. eigenvalues --    0.39831   0.88322   0.88874   0.88874   0.91555
 Alpha virt. eigenvalues --    0.94104   0.94104   0.97991   0.97991   0.98129
 Alpha virt. eigenvalues --    1.11151   1.11151   1.12203   1.13061   1.52941

 Mulliken charges and spin densities:
               1          2
     1  O   -0.148049   1.323481
     2  O   -0.351951   1.176519
     3  O   -0.351951   1.176519
     4  O   -0.148049   1.323481
 Sum of Mulliken charges =  -1.00000   5.00000

 Dipole moment (field-independent basis, Debye):
    X=             -0.0000    Y=             -0.0000    Z=              0.0000  Tot=              0.0000
 Quadrupole moment (field-independent basis, Debye-Ang):
   XX=            -22.1969   YY=            -22.1969   ZZ=            -49.0647
   XY=             -0.0000   XZ=              0.0000   YZ=             -0.0000

 5\MP4SDQ=-300.0173013\CCSD=-300.0033581\CCSD(T)=-300.056225\RMSD=3.718
 Normal termination of Gaussian 16 at Sun Jan 15 01:37:32 2023.
