 Gaussian 16, Revision A.03,
 Gaussian 16:  ES64L-G16RevA.03 25-Dec-2016

 ---------------------------------------------------------------
 #p ROCCSD(T)/cc-pVTZ Guess=Read SCF=(VeryTight,CDIIS,VShift=10)
 ---------------------------------------------------------------

 ---------
 O2_O2_249
 ---------
 Symbolic Z-matrix:
 Charge = -1 Multiplicity = 6

                         Standard orientation:
 ---------------------------------------------------------------------
 Center     Atomic      Atomic             Coordinates (Angstroms)
 Number     Number       Type             X           Y           Z
 ---------------------------------------------------------------------
      1          8           0        0.000000    0.000000    2.555319
      2          8           0        0.000000    0.000000    3.907699
      3          8           0        0.000000    0.000000   -3.907699
      4          8           0        0.000000    0.000000   -2.555319
 ---------------------------------------------------------------------

 SCF Done:  E(ROHF) =  -298.983182613     A.U. after   11 cycles
 E2 =    -0.1078157322D+01 EUMP2 =    -0.30006133993551D+03
 CCSD(T)
 CCSD(T)= -0.30003127005D+03

 The electronic state is 6-SGG.
 Alpha  occ. eigenvalues --  -20.50524 -20.50523 -20.48493 -20.48492  -1.36740
 Alpha  occ. eigenvalues --   -1.36739  -1.00827  -1.00646  -0.52897  -0.52897
 Alpha  occ. eigenvalues --   -0.52897  -0.52897  -0.52177  -0.51938  -0.32986
 Alpha  occ. eigenvalues --   -0.32986  -0.32984  -0.32984   0.19263
 Alpha virt. eigenvalues --    0.27886   0.84793   0.85635   0.89655   0.89655
 Alpha virt. eigenvalues --    0.89671   0.89671   0.94099   0.94751   0.98941
 Alpha virt. eigenvalues --    0.98941   0.98989   0.98989   1.10000   1.10004

 Mulliken charges and spin densities:
               1          2
     1  O   -0.200031   1.308129
     2  O   -0.299969   1.191871
     3  O   -0.299969   1.191871
     4  O   -0.200031   1.308129
 Sum of Mulliken charges =  -1.00000   5.00000

 Dipole moment (field-independent basis, Debye):
    X=             -0.0000    Y=              0.0000    Z=              0.0000  Tot=              0.0000
 Quadrupole moment (field-independent basis, Debye-Ang):
   XX=            -22.1644   YY=            -22.1644   ZZ=            -81.9479
   XY=             -0.0000   XZ=              0.0000   YZ=             -0.0000

 P4SDQ=-299.9913975\CCSD=-299.9790111\CCSD(T)=-300.03127\RMSD=3.075e-09
 Normal termination of Gaussian 16 at Mon Jan 16 04:29:25 2023.
