 Gaussian 16, Revision A.03,
 Gaussian 16:  ES64L-G16RevA.03 25-Dec-2016

 ---------------------------------------------------------------
 #p ROCCSD(T)/cc-pVTZ Guess=Read SCF=(VeryTight,CDIIS,VShift=10)
 ---------------------------------------------------------------

 ---------
 O2_O2_245
 ---------
 Symbolic Z-matrix:
 Charge = -1 Multiplicity = 6

                         Standard orientation:
 ---------------------------------------------------------------------
 Center     Atomic      Atomic             Coordinates (Angstroms)
 Number     Number       Type             X           Y           Z
 ---------------------------------------------------------------------
      1          8           0        0.000000    0.000000    2.527002
      2          8           0        0.000000    0.000000    3.879382
      3          8           0        0.000000    0.000000   -3.879382
      4          8           0        0.000000    0.000000   -2.527002
 ---------------------------------------------------------------------

 SCF Done:  E(ROHF) =  -298.983331877     A.U. after   15 cycles
 E2 =    -0.1078080786D+01 EUMP2 =    -0.30006141266245D+03
 CCSD(T)
 CCSD(T)= -0.30003141114D+03

 The electronic state is 6-SGG.
 Alpha  occ. eigenvalues --  -20.50512 -20.50511 -20.48446 -20.48445  -1.36708
 Alpha  occ. eigenvalues --   -1.36707  -1.00793  -1.00611  -0.52868  -0.52868
 Alpha  occ. eigenvalues --   -0.52867  -0.52867  -0.52142  -0.51895  -0.32952
 Alpha  occ. eigenvalues --   -0.32952  -0.32950  -0.32950   0.19251
 Alpha virt. eigenvalues --    0.27987   0.84763   0.85747   0.89687   0.89687
 Alpha virt. eigenvalues --    0.89706   0.89706   0.94099   0.94839   0.98973
 Alpha virt. eigenvalues --    0.98973   0.99029   0.99029   1.10033   1.10036

 Mulliken charges and spin densities:
               1          2
     1  O   -0.199242   1.309067
     2  O   -0.300758   1.190933
     3  O   -0.300758   1.190933
     4  O   -0.199242   1.309067
 Sum of Mulliken charges =  -1.00000   5.00000

 Dipole moment (field-independent basis, Debye):
    X=             -0.0000    Y=              0.0000    Z=              0.0000  Tot=              0.0000
 Quadrupole moment (field-independent basis, Debye-Ang):
   XX=            -22.1649   YY=            -22.1649   ZZ=            -81.0956
   XY=             -0.0000   XZ=              0.0000   YZ=             -0.0000

 P4SDQ=-299.9915538\CCSD=-299.9791546\CCSD(T)=-300.0314111\RMSD=2.433e-
 Normal termination of Gaussian 16 at Mon Jan 16 04:24:45 2023.
