 Gaussian 16, Revision A.03,
 Gaussian 16:  ES64L-G16RevA.03 25-Dec-2016

 ---------------------------------------------------------------
 #p ROCCSD(T)/cc-pVTZ Guess=Read SCF=(VeryTight,CDIIS,VShift=10)
 ---------------------------------------------------------------

 --------
 O2_O2_77
 --------
 Symbolic Z-matrix:
 Charge = -1 Multiplicity = 6

                         Standard orientation:
 ---------------------------------------------------------------------
 Center     Atomic      Atomic             Coordinates (Angstroms)
 Number     Number       Type             X           Y           Z
 ---------------------------------------------------------------------
      1          8           0        0.000000    0.000000    1.337681
      2          8           0        0.000000    0.000000    2.690061
      3          8           0        0.000000    0.000000   -2.690061
      4          8           0        0.000000    0.000000   -1.337681
 ---------------------------------------------------------------------

 SCF Done:  E(ROHF) =  -299.008542237     A.U. after   14 cycles
 E2 =    -0.1075225420D+01 EUMP2 =    -0.30008376765753D+03
 CCSD(T)
 CCSD(T)= -0.30005736617D+03

 The electronic state is 6-SGG.
 Alpha  occ. eigenvalues --  -20.49567 -20.49565 -20.44951 -20.44950  -1.34521
 Alpha  occ. eigenvalues --   -1.34330  -0.98799  -0.97627  -0.50923  -0.50851
 Alpha  occ. eigenvalues --   -0.50851  -0.50465  -0.50465  -0.47174  -0.30694
 Alpha  occ. eigenvalues --   -0.30694  -0.30159  -0.30159   0.16449
 Alpha virt. eigenvalues --    0.38059   0.88695   0.88911   0.88911   0.88970
 Alpha virt. eigenvalues --    0.92119   0.93437   0.93437   0.97990   0.97990
 Alpha virt. eigenvalues --    1.08135   1.08135   1.11870   1.12464   1.43976

 Mulliken charges and spin densities:
               1          2
     1  O   -0.147721   1.356718
     2  O   -0.352279   1.143282
     3  O   -0.352279   1.143282
     4  O   -0.147721   1.356718
 Sum of Mulliken charges =  -1.00000   5.00000

 Dipole moment (field-independent basis, Debye):
    X=             -0.0000    Y=             -0.0000    Z=              0.0000  Tot=              0.0000
 Quadrupole moment (field-independent basis, Debye-Ang):
   XX=            -22.1964   YY=            -22.1964   ZZ=            -51.5220
   XY=             -0.0000   XZ=              0.0000   YZ=             -0.0000

 7\MP4SDQ=-300.0188554\CCSD=-300.0048198\CCSD(T)=-300.0573662\RMSD=3.41
 Normal termination of Gaussian 16 at Sun Jan 15 02:28:28 2023.
