 Gaussian 16, Revision A.03,
 Gaussian 16:  ES64L-G16RevA.03 25-Dec-2016

 ---------------------------------------------------------------
 #p ROCCSD(T)/cc-pVTZ Guess=Read SCF=(VeryTight,CDIIS,VShift=10)
 ---------------------------------------------------------------

 ---------
 O2_O2_248
 ---------
 Symbolic Z-matrix:
 Charge = -1 Multiplicity = 6

                         Standard orientation:
 ---------------------------------------------------------------------
 Center     Atomic      Atomic             Coordinates (Angstroms)
 Number     Number       Type             X           Y           Z
 ---------------------------------------------------------------------
      1          8           0        0.000000    0.000000    2.548240
      2          8           0        0.000000    0.000000    3.900620
      3          8           0        0.000000    0.000000   -3.900620
      4          8           0        0.000000    0.000000   -2.548240
 ---------------------------------------------------------------------

 SCF Done:  E(ROHF) =  -298.983218122     A.U. after   12 cycles
 E2 =    -0.1078138461D+01 EUMP2 =    -0.30006135658317D+03
 CCSD(T)
 CCSD(T)= -0.30003130365D+03

 The electronic state is 6-SGG.
 Alpha  occ. eigenvalues --  -20.50521 -20.50520 -20.48481 -20.48481  -1.36732
 Alpha  occ. eigenvalues --   -1.36731  -1.00818  -1.00637  -0.52890  -0.52890
 Alpha  occ. eigenvalues --   -0.52889  -0.52889  -0.52168  -0.51927  -0.32977
 Alpha  occ. eigenvalues --   -0.32977  -0.32976  -0.32976   0.19260
 Alpha virt. eigenvalues --    0.27911   0.84786   0.85662   0.89663   0.89663
 Alpha virt. eigenvalues --    0.89680   0.89680   0.94100   0.94772   0.98949
 Alpha virt. eigenvalues --    0.98949   0.98999   0.98999   1.10008   1.10012

 Mulliken charges and spin densities:
               1          2
     1  O   -0.199834   1.308362
     2  O   -0.300166   1.191638
     3  O   -0.300166   1.191638
     4  O   -0.199834   1.308362
 Sum of Mulliken charges =  -1.00000   5.00000

 Dipole moment (field-independent basis, Debye):
    X=             -0.0000    Y=              0.0000    Z=              0.0000  Tot=              0.0000
 Quadrupole moment (field-independent basis, Debye-Ang):
   XX=            -22.1645   YY=            -22.1645   ZZ=            -81.7342
   XY=             -0.0000   XZ=              0.0000   YZ=             -0.0000

 P4SDQ=-299.9914347\CCSD=-299.9790452\CCSD(T)=-300.0313036\RMSD=6.458e-
 Normal termination of Gaussian 16 at Mon Jan 16 04:28:15 2023.
