 Gaussian 16, Revision A.03,
 Gaussian 16:  ES64L-G16RevA.03 25-Dec-2016

 ---------------------------------------------------------------
 #p ROCCSD(T)/cc-pVTZ Guess=Read SCF=(VeryTight,CDIIS,VShift=10)
 ---------------------------------------------------------------

 --------
 O2_O2_28
 --------
 Symbolic Z-matrix:
 Charge = -1 Multiplicity = 6

                         Standard orientation:
 ---------------------------------------------------------------------
 Center     Atomic      Atomic             Coordinates (Angstroms)
 Number     Number       Type             X           Y           Z
 ---------------------------------------------------------------------
      1          8           0        0.000000    0.000000    0.990795
      2          8           0        0.000000    0.000000    2.343176
      3          8           0        0.000000    0.000000   -2.343176
      4          8           0        0.000000    0.000000   -0.990795
 ---------------------------------------------------------------------

 SCF Done:  E(ROHF) =  -298.985786653     A.U. after   14 cycles
 E2 =    -0.1080711206D+01 EUMP2 =    -0.30006649785923D+03
 CCSD(T)
 CCSD(T)= -0.30003993497D+03

 The electronic state is 6-SGG.
 Alpha  occ. eigenvalues --  -20.44551 -20.44545 -20.43790 -20.43790  -1.32927
 Alpha  occ. eigenvalues --   -1.31687  -0.99648  -0.93939  -0.53205  -0.49039
 Alpha  occ. eigenvalues --   -0.49039  -0.47388  -0.47388  -0.41505  -0.29812
 Alpha  occ. eigenvalues --   -0.29812  -0.26844  -0.26844   0.15136
 Alpha virt. eigenvalues --    0.44963   0.86833   0.89875   0.90953   0.90953
 Alpha virt. eigenvalues --    0.94833   0.94833   0.98648   0.98648   1.12157
 Alpha virt. eigenvalues --    1.12597   1.16155   1.16155   1.18211   1.63985

 Mulliken charges and spin densities:
               1          2
     1  O   -0.172470   1.211012
     2  O   -0.327530   1.288988
     3  O   -0.327530   1.288988
     4  O   -0.172470   1.211012
 Sum of Mulliken charges =  -1.00000   5.00000

 Dipole moment (field-independent basis, Debye):
    X=             -0.0000    Y=              0.0000    Z=              0.0000  Tot=              0.0000
 Quadrupole moment (field-independent basis, Debye-Ang):
   XX=            -22.1698   YY=            -22.1698   ZZ=            -44.6167
   XY=             -0.0000   XZ=              0.0000   YZ=             -0.0000

 9\MP4SDQ=-299.9998688\CCSD=-299.9862727\CCSD(T)=-300.039935\RMSD=2.101
 Normal termination of Gaussian 16 at Sun Jan 15 00:20:41 2023.
