 Gaussian 16, Revision A.03,
 Gaussian 16:  ES64L-G16RevA.03 25-Dec-2016

 ---------------------------------------------------------------
 #p ROCCSD(T)/cc-pVTZ Guess=Read SCF=(VeryTight,CDIIS,VShift=10)
 ---------------------------------------------------------------

 --------
 O2_O2_14
 --------
 Symbolic Z-matrix:
 Charge = -1 Multiplicity = 6

                         Standard orientation:
 ---------------------------------------------------------------------
 Center     Atomic      Atomic             Coordinates (Angstroms)
 Number     Number       Type             X           Y           Z
 ---------------------------------------------------------------------
      1          8           0        0.000000    0.000000    0.891685
      2          8           0        0.000000    0.000000    2.244066
      3          8           0        0.000000    0.000000   -2.244066
      4          8           0        0.000000    0.000000   -0.891685
 ---------------------------------------------------------------------

 SCF Done:  E(ROHF) =  -298.958412187     A.U. after   12 cycles
 E2 =    -0.1075748847D+01 EUMP2 =    -0.30003416103374D+03
 CCSD(T)
 CCSD(T)= -0.30001432322D+03

 The electronic state is 6-SGG.
 Alpha  occ. eigenvalues --  -20.43648 -20.43648 -20.41730 -20.41721  -1.32591
 Alpha  occ. eigenvalues --   -1.30573  -1.01091  -0.91853  -0.54599  -0.48660
 Alpha  occ. eigenvalues --   -0.48660  -0.46421  -0.46421  -0.38197  -0.29817
 Alpha  occ. eigenvalues --   -0.29817  -0.24672  -0.24672   0.14290
 Alpha virt. eigenvalues --    0.49734   0.85886   0.88823   0.92657   0.92657
 Alpha virt. eigenvalues --    0.95002   0.95002   0.99827   0.99827   1.12639
 Alpha virt. eigenvalues --    1.12670   1.18571   1.18571   1.24871   1.66129

 Mulliken charges and spin densities:
               1          2
     1  O   -0.203488   1.114346
     2  O   -0.296512   1.385654
     3  O   -0.296512   1.385654
     4  O   -0.203488   1.114346
 Sum of Mulliken charges =  -1.00000   5.00000

 Dipole moment (field-independent basis, Debye):
    X=             -0.0000    Y=              0.0000    Z=              0.0000  Tot=              0.0000
 Quadrupole moment (field-independent basis, Debye-Ang):
   XX=            -22.1201   YY=            -22.1201   ZZ=            -42.1461
   XY=             -0.0000   XZ=              0.0000   YZ=             -0.0000

 MP4SDQ=-299.9728752\CCSD=-299.9601839\CCSD(T)=-300.0143232\RMSD=1.190e
 Normal termination of Gaussian 16 at Sat Jan 14 23:43:20 2023.
