 Gaussian 16, Revision A.03,
 Gaussian 16:  ES64L-G16RevA.03 25-Dec-2016

 ---------------------------------------------------------------
 #p ROCCSD(T)/cc-pVTZ Guess=Read SCF=(VeryTight,CDIIS,VShift=10)
 ---------------------------------------------------------------

 --------
 O2_O2_37
 --------
 Symbolic Z-matrix:
 Charge = -1 Multiplicity = 6

                         Standard orientation:
 ---------------------------------------------------------------------
 Center     Atomic      Atomic             Coordinates (Angstroms)
 Number     Number       Type             X           Y           Z
 ---------------------------------------------------------------------
      1          8           0        0.000000    0.000000    1.054510
      2          8           0        0.000000    0.000000    2.406890
      3          8           0        0.000000    0.000000   -2.406890
      4          8           0        0.000000    0.000000   -1.054510
 ---------------------------------------------------------------------

 SCF Done:  E(ROHF) =  -298.995522368     A.U. after   15 cycles
 E2 =    -0.1080484596D+01 EUMP2 =    -0.30007600696391D+03
 CCSD(T)
 CCSD(T)= -0.30004832539D+03

 The electronic state is 6-SGG.
 Alpha  occ. eigenvalues --  -20.45939 -20.45935 -20.43900 -20.43900  -1.33206
 Alpha  occ. eigenvalues --   -1.32311  -0.99142  -0.94937  -0.52505  -0.49362
 Alpha  occ. eigenvalues --   -0.49362  -0.48051  -0.48051  -0.43084  -0.29888
 Alpha  occ. eigenvalues --   -0.29888  -0.27775  -0.27775   0.15491
 Alpha virt. eigenvalues --    0.42920   0.87375   0.89993   0.89993   0.90470
 Alpha virt. eigenvalues --    0.94665   0.94665   0.98309   0.98309   1.10005
 Alpha virt. eigenvalues --    1.12502   1.14632   1.14632   1.14712   1.61029

 Mulliken charges and spin densities:
               1          2
     1  O   -0.159944   1.256161
     2  O   -0.340056   1.243839
     3  O   -0.340056   1.243839
     4  O   -0.159944   1.256161
 Sum of Mulliken charges =  -1.00000   5.00000

 Dipole moment (field-independent basis, Debye):
    X=             -0.0000    Y=              0.0000    Z=             -0.0000  Tot=              0.0000
 Quadrupole moment (field-independent basis, Debye-Ang):
   XX=            -22.1856   YY=            -22.1856   ZZ=            -46.0757
   XY=             -0.0000   XZ=              0.0000   YZ=             -0.0000

 MP4SDQ=-300.0087399\CCSD=-299.9949454\CCSD(T)=-300.0483254\RMSD=2.562e
 Normal termination of Gaussian 16 at Sun Jan 15 00:43:29 2023.
