 Gaussian 16, Revision A.03,
 Gaussian 16:  ES64L-G16RevA.03 25-Dec-2016

 ---------------------------------------------------------------
 #p ROCCSD(T)/cc-pVTZ Guess=Read SCF=(VeryTight,CDIIS,VShift=10)
 ---------------------------------------------------------------

 ---------
 O2_O2_196
 ---------
 Symbolic Z-matrix:
 Charge = -1 Multiplicity = 6

                         Standard orientation:
 ---------------------------------------------------------------------
 Center     Atomic      Atomic             Coordinates (Angstroms)
 Number     Number       Type             X           Y           Z
 ---------------------------------------------------------------------
      1          8           0        0.000000    0.000000    2.180117
      2          8           0        0.000000    0.000000    3.532497
      3          8           0        0.000000    0.000000   -3.532497
      4          8           0        0.000000    0.000000   -2.180117
 ---------------------------------------------------------------------

 SCF Done:  E(ROHF) =  -298.987664856     A.U. after   12 cycles
 E2 =    -0.1076813194D+01 EUMP2 =    -0.30006447804988D+03
 CCSD(T)
 CCSD(T)= -0.30003546465D+03

 The electronic state is 6-SGG.
 Alpha  occ. eigenvalues --  -20.50524 -20.50523 -20.47890 -20.47889  -1.36348
 Alpha  occ. eigenvalues --   -1.36346  -1.00384  -1.00190  -0.52552  -0.52552
 Alpha  occ. eigenvalues --   -0.52546  -0.52546  -0.51695  -0.51265  -0.32570
 Alpha  occ. eigenvalues --   -0.32570  -0.32558  -0.32558   0.18921
 Alpha virt. eigenvalues --    0.29704   0.83069   0.87955   0.90029   0.90029
 Alpha virt. eigenvalues --    0.90182   0.90182   0.93537   0.97432   0.99275
 Alpha virt. eigenvalues --    0.99275   0.99653   0.99653   1.10433   1.10441

 Mulliken charges and spin densities:
               1          2
     1  O   -0.188694   1.323276
     2  O   -0.311306   1.176724
     3  O   -0.311306   1.176724
     4  O   -0.188694   1.323276
 Sum of Mulliken charges =  -1.00000   5.00000

 Dipole moment (field-independent basis, Debye):
    X=             -0.0000    Y=              0.0000    Z=             -0.0000  Tot=              0.0000
 Quadrupole moment (field-independent basis, Debye-Ang):
   XX=            -22.1747   YY=            -22.1747   ZZ=            -71.1139
   XY=             -0.0000   XZ=              0.0000   YZ=             -0.0000

 \MP4SDQ=-299.9960015\CCSD=-299.9832793\CCSD(T)=-300.0354646\RMSD=7.735
 Normal termination of Gaussian 16 at Sun Jan 15 07:42:23 2023.
