 Gaussian 16, Revision A.03,
 Gaussian 16:  ES64L-G16RevA.03 25-Dec-2016

 ---------------------------------------------------------------
 #p ROCCSD(T)/cc-pVTZ Guess=Read SCF=(VeryTight,CDIIS,VShift=10)
 ---------------------------------------------------------------

 ---------
 O2_O2_153
 ---------
 Symbolic Z-matrix:
 Charge = -1 Multiplicity = 6

                         Standard orientation:
 ---------------------------------------------------------------------
 Center     Atomic      Atomic             Coordinates (Angstroms)
 Number     Number       Type             X           Y           Z
 ---------------------------------------------------------------------
      1          8           0        0.000000    0.000000    1.875707
      2          8           0        0.000000    0.000000    3.228087
      3          8           0        0.000000    0.000000   -3.228087
      4          8           0        0.000000    0.000000   -1.875707
 ---------------------------------------------------------------------

 SCF Done:  E(ROHF) =  -298.997430453     A.U. after   10 cycles
 E2 =    -0.1074965190D+01 EUMP2 =    -0.30007239564228D+03
 CCSD(T)
 CCSD(T)= -0.30004468366D+03

 The electronic state is 6-SGG.
 Alpha  occ. eigenvalues --  -20.50953 -20.50952 -20.47354 -20.47353  -1.36096
 Alpha  occ. eigenvalues --   -1.36085  -1.00040  -0.99792  -0.52394  -0.52394
 Alpha  occ. eigenvalues --   -0.52365  -0.52365  -0.51252  -0.50415  -0.32286
 Alpha  occ. eigenvalues --   -0.32286  -0.32235  -0.32235   0.18146
 Alpha virt. eigenvalues --    0.32350   0.79084   0.89688   0.90090   0.90090
 Alpha virt. eigenvalues --    0.90820   0.90820   0.92550   0.99113   0.99113
 Alpha virt. eigenvalues --    1.00831   1.00831   1.06458   1.10754   1.10830

 Mulliken charges and spin densities:
               1          2
     1  O   -0.175938   1.347804
     2  O   -0.324062   1.152196
     3  O   -0.324062   1.152196
     4  O   -0.175938   1.347804
 Sum of Mulliken charges =  -1.00000   5.00000

 Dipole moment (field-independent basis, Debye):
    X=             -0.0000    Y=              0.0000    Z=             -0.0000  Tot=              0.0000
 Quadrupole moment (field-independent basis, Debye-Ang):
   XX=            -22.1914   YY=            -22.1914   ZZ=            -62.9417
   XY=             -0.0000   XZ=              0.0000   YZ=             -0.0000

 6\MP4SDQ=-300.0060218\CCSD=-299.9926055\CCSD(T)=-300.0446837\RMSD=7.89
 Normal termination of Gaussian 16 at Sun Jan 15 05:46:31 2023.
