 Gaussian 16, Revision A.03,
 Gaussian 16:  ES64L-G16RevA.03 25-Dec-2016

 ---------------------------------------------------------------
 #p ROCCSD(T)/cc-pVTZ Guess=Read SCF=(VeryTight,CDIIS,VShift=10)
 ---------------------------------------------------------------

 --------
 O2_O2_57
 --------
 Symbolic Z-matrix:
 Charge = -1 Multiplicity = 6

                         Standard orientation:
 ---------------------------------------------------------------------
 Center     Atomic      Atomic             Coordinates (Angstroms)
 Number     Number       Type             X           Y           Z
 ---------------------------------------------------------------------
      1          8           0        0.000000    0.000000    1.196095
      2          8           0        0.000000    0.000000    2.548475
      3          8           0        0.000000    0.000000   -2.548475
      4          8           0        0.000000    0.000000   -1.196095
 ---------------------------------------------------------------------

 SCF Done:  E(ROHF) =  -299.005677043     A.U. after   14 cycles
 E2 =    -0.1077652963D+01 EUMP2 =    -0.30008333000532D+03
 CCSD(T)
 CCSD(T)= -0.30005606341D+03

 The electronic state is 6-SGG.
 Alpha  occ. eigenvalues --  -20.48123 -20.48120 -20.44324 -20.44324  -1.33862
 Alpha  occ. eigenvalues --   -1.33444  -0.98702  -0.96528  -0.51440  -0.50117
 Alpha  occ. eigenvalues --   -0.50117  -0.49386  -0.49386  -0.45559  -0.30212
 Alpha  occ. eigenvalues --   -0.30212  -0.29172  -0.29172   0.16041
 Alpha virt. eigenvalues --    0.39943   0.88284   0.88894   0.88894   0.91517
 Alpha virt. eigenvalues --    0.94135   0.94135   0.97998   0.97998   0.98695
 Alpha virt. eigenvalues --    1.11315   1.11315   1.12219   1.13096   1.53364

 Mulliken charges and spin densities:
               1          2
     1  O   -0.148257   1.321148
     2  O   -0.351743   1.178852
     3  O   -0.351743   1.178852
     4  O   -0.148257   1.321148
 Sum of Mulliken charges =  -1.00000   5.00000

 Dipole moment (field-independent basis, Debye):
    X=             -0.0000    Y=              0.0000    Z=              0.0000  Tot=              0.0000
 Quadrupole moment (field-independent basis, Debye-Ang):
   XX=            -22.1968   YY=            -22.1968   ZZ=            -48.9315
   XY=             -0.0000   XZ=              0.0000   YZ=             -0.0000

 -300.0171149\CCSD=-300.0031764\CCSD(T)=-300.0560634\RMSD=3.956e-09\PG=
 Normal termination of Gaussian 16 at Sun Jan 15 01:35:03 2023.
