 Gaussian 16, Revision A.03,
 Gaussian 16:  ES64L-G16RevA.03 25-Dec-2016

 ---------------------------------------------------------------
 #p ROCCSD(T)/cc-pVTZ Guess=Read SCF=(VeryTight,CDIIS,VShift=10)
 ---------------------------------------------------------------

 -------
 O2_O2_7
 -------
 Symbolic Z-matrix:
 Charge = -1 Multiplicity = 6

                         Standard orientation:
 ---------------------------------------------------------------------
 Center     Atomic      Atomic             Coordinates (Angstroms)
 Number     Number       Type             X           Y           Z
 ---------------------------------------------------------------------
      1          8           0        0.000000    0.000000    0.842130
      2          8           0        0.000000    0.000000    2.194511
      3          8           0        0.000000    0.000000   -2.194511
      4          8           0        0.000000    0.000000   -0.842130
 ---------------------------------------------------------------------

 SCF Done:  E(ROHF) =  -298.936225397     A.U. after   14 cycles
 E2 =    -0.1069083982D+01 EUMP2 =    -0.30000530937871D+03
 CCSD(T)
 CCSD(T)= -0.29999226788D+03

 The electronic state is 6-SGG.
 Alpha  occ. eigenvalues --  -20.43493 -20.43492 -20.40061 -20.40049  -1.32538
 Alpha  occ. eigenvalues --   -1.29962  -1.02273  -0.90515  -0.55443  -0.48589
 Alpha  occ. eigenvalues --   -0.48589  -0.46019  -0.46019  -0.36063  -0.29923
 Alpha  occ. eigenvalues --   -0.29923  -0.23143  -0.23143   0.13641
 Alpha virt. eigenvalues --    0.53186   0.85476   0.88216   0.93319   0.93319
 Alpha virt. eigenvalues --    0.95066   0.95066   1.00906   1.00906   1.12554
 Alpha virt. eigenvalues --    1.12632   1.19770   1.19770   1.27549   1.65412

 Mulliken charges and spin densities:
               1          2
     1  O   -0.222336   1.055585
     2  O   -0.277664   1.444415
     3  O   -0.277664   1.444415
     4  O   -0.222336   1.055585
 Sum of Mulliken charges =  -1.00000   5.00000

 Dipole moment (field-independent basis, Debye):
    X=             -0.0000    Y=              0.0000    Z=              0.0000  Tot=              0.0000
 Quadrupole moment (field-independent basis, Debye-Ang):
   XX=            -22.0776   YY=            -22.0776   ZZ=            -40.9316
   XY=             -0.0000   XZ=              0.0000   YZ=             -0.0000

 \MP4SDQ=-299.9496426\CCSD=-299.9378979\CCSD(T)=-299.9922679\RMSD=3.463
 Normal termination of Gaussian 16 at Sat Jan 14 23:25:21 2023.
