 Gaussian 16, Revision A.03,
 Gaussian 16:  ES64L-G16RevA.03 25-Dec-2016

 ---------------------------------------------------------------
 #p ROCCSD(T)/cc-pVTZ Guess=Read SCF=(VeryTight,CDIIS,VShift=10)
 ---------------------------------------------------------------

 --------
 O2_O2_71
 --------
 Symbolic Z-matrix:
 Charge = -1 Multiplicity = 6

                         Standard orientation:
 ---------------------------------------------------------------------
 Center     Atomic      Atomic             Coordinates (Angstroms)
 Number     Number       Type             X           Y           Z
 ---------------------------------------------------------------------
      1          8           0        0.000000    0.000000    1.295205
      2          8           0        0.000000    0.000000    2.647585
      3          8           0        0.000000    0.000000   -2.647585
      4          8           0        0.000000    0.000000   -1.295205
 ---------------------------------------------------------------------

 SCF Done:  E(ROHF) =  -299.008088869     A.U. after   12 cycles
 E2 =    -0.1075842992D+01 EUMP2 =    -0.30008393186112D+03
 CCSD(T)
 CCSD(T)= -0.30005731306D+03

 The electronic state is 6-SGG.
 Alpha  occ. eigenvalues --  -20.49187 -20.49185 -20.44746 -20.44746  -1.34325
 Alpha  occ. eigenvalues --   -1.34083  -0.98734  -0.97331  -0.51031  -0.50635
 Alpha  occ. eigenvalues --   -0.50635  -0.50166  -0.50166  -0.46750  -0.30538
 Alpha  occ. eigenvalues --   -0.30538  -0.29886  -0.29886   0.16334
 Alpha virt. eigenvalues --    0.38558   0.88775   0.88832   0.88832   0.91233
 Alpha virt. eigenvalues --    0.92117   0.93661   0.93661   0.97967   0.97967
 Alpha virt. eigenvalues --    1.09062   1.09062   1.11980   1.12645   1.47000

 Mulliken charges and spin densities:
               1          2
     1  O   -0.147204   1.348262
     2  O   -0.352796   1.151738
     3  O   -0.352796   1.151738
     4  O   -0.147204   1.348262
 Sum of Mulliken charges =  -1.00000   5.00000

 Dipole moment (field-independent basis, Debye):
    X=             -0.0000    Y=              0.0000    Z=              0.0000  Tot=              0.0000
 Quadrupole moment (field-independent basis, Debye-Ang):
   XX=            -22.1966   YY=            -22.1966   ZZ=            -50.7546
   XY=             -0.0000   XZ=              0.0000   YZ=             -0.0000

 P4SDQ=-300.0186825\CCSD=-300.0046762\CCSD(T)=-300.0573131\RMSD=8.293e-
 Normal termination of Gaussian 16 at Sun Jan 15 02:13:21 2023.
