 Gaussian 16, Revision A.03,
 Gaussian 16:  ES64L-G16RevA.03 25-Dec-2016

 ---------------------------------------------------------------
 #p ROCCSD(T)/cc-pVTZ Guess=Read SCF=(VeryTight,CDIIS,VShift=10)
 ---------------------------------------------------------------

 ---------
 O2_O2_146
 ---------
 Symbolic Z-matrix:
 Charge = -1 Multiplicity = 6

                         Standard orientation:
 ---------------------------------------------------------------------
 Center     Atomic      Atomic             Coordinates (Angstroms)
 Number     Number       Type             X           Y           Z
 ---------------------------------------------------------------------
      1          8           0        0.000000    0.000000    1.826152
      2          8           0        0.000000    0.000000    3.178532
      3          8           0        0.000000    0.000000   -3.178532
      4          8           0        0.000000    0.000000   -1.826152
 ---------------------------------------------------------------------

 SCF Done:  E(ROHF) =  -298.999386606     A.U. after   13 cycles
 E2 =    -0.1074615602D+01 EUMP2 =    -0.30007400220807D+03
 CCSD(T)
 CCSD(T)= -0.30004656567D+03

 The electronic state is 6-SGG.
 Alpha  occ. eigenvalues --  -20.51036 -20.51034 -20.47223 -20.47222  -1.36041
 Alpha  occ. eigenvalues --   -1.36027  -0.99968  -0.99701  -0.52359  -0.52359
 Alpha  occ. eigenvalues --   -0.52322  -0.52322  -0.51174  -0.50228  -0.32220
 Alpha  occ. eigenvalues --   -0.32220  -0.32157  -0.32157   0.17975
 Alpha virt. eigenvalues --    0.32885   0.78549   0.89805   0.90059   0.90059
 Alpha virt. eigenvalues --    0.90974   0.90974   0.92446   0.99026   0.99026
 Alpha virt. eigenvalues --    1.01155   1.01155   1.08893   1.10833   1.10912

 Mulliken charges and spin densities:
               1          2
     1  O   -0.173121   1.353434
     2  O   -0.326879   1.146566
     3  O   -0.326879   1.146566
     4  O   -0.173121   1.353434
 Sum of Mulliken charges =  -1.00000   5.00000

 Dipole moment (field-independent basis, Debye):
    X=             -0.0000    Y=              0.0000    Z=              0.0000  Tot=              0.0000
 Quadrupole moment (field-independent basis, Debye-Ang):
   XX=            -22.1939   YY=            -22.1939   ZZ=            -61.6907
   XY=             -0.0000   XZ=              0.0000   YZ=             -0.0000

 22\MP4SDQ=-300.0080485\CCSD=-299.9944946\CCSD(T)=-300.0465657\RMSD=5.6
 Normal termination of Gaussian 16 at Sun Jan 15 05:27:52 2023.
