 Gaussian 16, Revision A.03,
 Gaussian 16:  ES64L-G16RevA.03 25-Dec-2016

 ---------------------------------------------------------------
 #p ROCCSD(T)/cc-pVTZ Guess=Read SCF=(VeryTight,CDIIS,VShift=10)
 ---------------------------------------------------------------

 -------
 O2_O2_9
 -------
 Symbolic Z-matrix:
 Charge = -1 Multiplicity = 6

                         Standard orientation:
 ---------------------------------------------------------------------
 Center     Atomic      Atomic             Coordinates (Angstroms)
 Number     Number       Type             X           Y           Z
 ---------------------------------------------------------------------
      1          8           0        0.000000    0.000000    0.856289
      2          8           0        0.000000    0.000000    2.208669
      3          8           0        0.000000    0.000000   -2.208669
      4          8           0        0.000000    0.000000   -0.856289
 ---------------------------------------------------------------------

 SCF Done:  E(ROHF) =  -298.943297793     A.U. after   14 cycles
 E2 =    -0.1071324477D+01 EUMP2 =    -0.30001462227083D+03
 CCSD(T)
 CCSD(T)= -0.29999939365D+03

 The electronic state is 6-SGG.
 Alpha  occ. eigenvalues --  -20.43550 -20.43549 -20.40549 -20.40538  -1.32540
 Alpha  occ. eigenvalues --   -1.30140  -1.01894  -0.90919  -0.55192  -0.48599
 Alpha  occ. eigenvalues --   -0.48599  -0.46128  -0.46128  -0.36708  -0.29882
 Alpha  occ. eigenvalues --   -0.29882  -0.23612  -0.23612   0.13847
 Alpha virt. eigenvalues --    0.52110   0.85580   0.88396   0.93154   0.93154
 Alpha virt. eigenvalues --    0.95047   0.95047   1.00562   1.00562   1.12589
 Alpha virt. eigenvalues --    1.12656   1.19431   1.19431   1.26838   1.65576

 Mulliken charges and spin densities:
               1          2
     1  O   -0.216900   1.072843
     2  O   -0.283100   1.427157
     3  O   -0.283100   1.427157
     4  O   -0.216900   1.072843
 Sum of Mulliken charges =  -1.00000   5.00000

 Dipole moment (field-independent basis, Debye):
    X=             -0.0000    Y=             -0.0000    Z=             -0.0000  Tot=              0.0000
 Quadrupole moment (field-independent basis, Debye-Ang):
   XX=            -22.0913   YY=            -22.0913   ZZ=            -41.2686
   XY=             -0.0000   XZ=              0.0000   YZ=             -0.0000

 \MP4SDQ=-299.9571445\CCSD=-299.9450879\CCSD(T)=-299.9993937\RMSD=4.761
 Normal termination of Gaussian 16 at Sat Jan 14 23:30:37 2023.
