 Gaussian 16, Revision A.03,
 Gaussian 16:  ES64L-G16RevA.03 25-Dec-2016

 ---------------------------------------------------------------
 #p ROCCSD(T)/cc-pVTZ Guess=Read SCF=(VeryTight,CDIIS,VShift=10)
 ---------------------------------------------------------------

 ---------
 O2_O2_236
 ---------
 Symbolic Z-matrix:
 Charge = -1 Multiplicity = 6

                         Standard orientation:
 ---------------------------------------------------------------------
 Center     Atomic      Atomic             Coordinates (Angstroms)
 Number     Number       Type             X           Y           Z
 ---------------------------------------------------------------------
      1          8           0        0.000000    0.000000    2.463288
      2          8           0        0.000000    0.000000    3.815668
      3          8           0        0.000000    0.000000   -3.815668
      4          8           0        0.000000    0.000000   -2.463288
 ---------------------------------------------------------------------

 SCF Done:  E(ROHF) =  -298.983746725     A.U. after   12 cycles
 E2 =    -0.1077896821D+01 EUMP2 =    -0.30006164354585D+03
 CCSD(T)
 CCSD(T)= -0.30003180170D+03

 The electronic state is 6-SGG.
 Alpha  occ. eigenvalues --  -20.50490 -20.50489 -20.48340 -20.48339  -1.36637
 Alpha  occ. eigenvalues --   -1.36636  -1.00716  -1.00533  -0.52802  -0.52802
 Alpha  occ. eigenvalues --   -0.52801  -0.52801  -0.52064  -0.51794  -0.32876
 Alpha  occ. eigenvalues --   -0.32876  -0.32874  -0.32874   0.19219
 Alpha virt. eigenvalues --    0.28231   0.84656   0.86037   0.89757   0.89757
 Alpha virt. eigenvalues --    0.89786   0.89786   0.94078   0.95073   0.99044
 Alpha virt. eigenvalues --    0.99044   0.99122   0.99122   1.10107   1.10111

 Mulliken charges and spin densities:
               1          2
     1  O   -0.197428   1.311256
     2  O   -0.302572   1.188744
     3  O   -0.302572   1.188744
     4  O   -0.197428   1.311256
 Sum of Mulliken charges =  -1.00000   5.00000

 Dipole moment (field-independent basis, Debye):
    X=             -0.0000    Y=              0.0000    Z=             -0.0000  Tot=              0.0000
 Quadrupole moment (field-independent basis, Debye-Ang):
   XX=            -22.1659   YY=            -22.1659   ZZ=            -79.2010
   XY=             -0.0000   XZ=              0.0000   YZ=             -0.0000

 P4SDQ=-299.9919852\CCSD=-299.9795521\CCSD(T)=-300.0318017\RMSD=6.797e-
 Normal termination of Gaussian 16 at Mon Jan 16 04:14:14 2023.
