 Gaussian 16, Revision A.03,
 Gaussian 16:  ES64L-G16RevA.03 25-Dec-2016

 ---------------------------------------------------------------
 #p ROCCSD(T)/cc-pVTZ Guess=Read SCF=(VeryTight,CDIIS,VShift=10)
 ---------------------------------------------------------------

 ---------
 O2_O2_198
 ---------
 Symbolic Z-matrix:
 Charge = -1 Multiplicity = 6

                         Standard orientation:
 ---------------------------------------------------------------------
 Center     Atomic      Atomic             Coordinates (Angstroms)
 Number     Number       Type             X           Y           Z
 ---------------------------------------------------------------------
      1          8           0        0.000000    0.000000    2.194275
      2          8           0        0.000000    0.000000    3.546655
      3          8           0        0.000000    0.000000   -3.546655
      4          8           0        0.000000    0.000000   -2.194275
 ---------------------------------------------------------------------

 SCF Done:  E(ROHF) =  -298.987360665     A.U. after   12 cycles
 E2 =    -0.1076880334D+01 EUMP2 =    -0.30006424099873D+03
 CCSD(T)
 CCSD(T)= -0.30003518029D+03

 The electronic state is 6-SGG.
 Alpha  occ. eigenvalues --  -20.50515 -20.50514 -20.47911 -20.47911  -1.36361
 Alpha  occ. eigenvalues --   -1.36359  -1.00400  -1.00206  -0.52562  -0.52562
 Alpha  occ. eigenvalues --   -0.52557  -0.52557  -0.51714  -0.51296  -0.32583
 Alpha  occ. eigenvalues --   -0.32583  -0.32573  -0.32573   0.18944
 Alpha virt. eigenvalues --    0.29611   0.83206   0.87844   0.90019   0.90019
 Alpha virt. eigenvalues --    0.90160   0.90160   0.93582   0.97225   0.99269
 Alpha virt. eigenvalues --    0.99269   0.99619   0.99619   1.10417   1.10425

 Mulliken charges and spin densities:
               1          2
     1  O   -0.189166   1.322527
     2  O   -0.310834   1.177473
     3  O   -0.310834   1.177473
     4  O   -0.189166   1.322527
 Sum of Mulliken charges =  -1.00000   5.00000

 Dipole moment (field-independent basis, Debye):
    X=             -0.0000    Y=             -0.0000    Z=             -0.0000  Tot=              0.0000
 Quadrupole moment (field-independent basis, Debye-Ang):
   XX=            -22.1741   YY=            -22.1741   ZZ=            -71.5073
   XY=             -0.0000   XZ=              0.0000   YZ=             -0.0000

 P4SDQ=-299.9956906\CCSD=-299.9829902\CCSD(T)=-300.0351803\RMSD=8.145e-
 Normal termination of Gaussian 16 at Sun Jan 15 07:47:13 2023.
