 Gaussian 16, Revision A.03,
 Gaussian 16:  ES64L-G16RevA.03 25-Dec-2016

 ---------------------------------------------------------------
 #p ROCCSD(T)/cc-pVTZ Guess=Read SCF=(VeryTight,CDIIS,VShift=10)
 ---------------------------------------------------------------

 --------
 O2_O2_13
 --------
 Symbolic Z-matrix:
 Charge = -1 Multiplicity = 6

                         Standard orientation:
 ---------------------------------------------------------------------
 Center     Atomic      Atomic             Coordinates (Angstroms)
 Number     Number       Type             X           Y           Z
 ---------------------------------------------------------------------
      1          8           0        0.000000    0.000000    0.884606
      2          8           0        0.000000    0.000000    2.236987
      3          8           0        0.000000    0.000000   -2.236987
      4          8           0        0.000000    0.000000   -0.884606
 ---------------------------------------------------------------------

 SCF Done:  E(ROHF) =  -298.955661076     A.U. after   14 cycles
 E2 =    -0.1074995757D+01 EUMP2 =    -0.30003065683276D+03
 CCSD(T)
 CCSD(T)= -0.30001163944D+03

 The electronic state is 6-SGG.
 Alpha  occ. eigenvalues --  -20.43633 -20.43632 -20.41499 -20.41490  -1.32577
 Alpha  occ. eigenvalues --   -1.30487  -1.01237  -0.91675  -0.54713  -0.48644
 Alpha  occ. eigenvalues --   -0.48644  -0.46360  -0.46360  -0.37913  -0.29826
 Alpha  occ. eigenvalues --   -0.29826  -0.24473  -0.24473   0.14209
 Alpha virt. eigenvalues --    0.50175   0.85821   0.88740   0.92765   0.92765
 Alpha virt. eigenvalues --    0.95012   0.95012   0.99959   0.99959   1.12633
 Alpha virt. eigenvalues --    1.12673   1.18744   1.18744   1.25286   1.66004

 Mulliken charges and spin densities:
               1          2
     1  O   -0.206122   1.106276
     2  O   -0.293878   1.393724
     3  O   -0.293878   1.393724
     4  O   -0.206122   1.106276
 Sum of Mulliken charges =  -1.00000   5.00000

 Dipole moment (field-independent basis, Debye):
    X=             -0.0000    Y=              0.0000    Z=             -0.0000  Tot=              0.0000
 Quadrupole moment (field-independent basis, Debye-Ang):
   XX=            -22.1149   YY=            -22.1149   ZZ=            -41.9679
   XY=             -0.0000   XZ=              0.0000   YZ=             -0.0000

 8\MP4SDQ=-299.9700467\CCSD=-299.9574663\CCSD(T)=-300.0116394\RMSD=3.71
 Normal termination of Gaussian 16 at Sat Jan 14 23:40:55 2023.
