 Gaussian 16, Revision A.03,
 Gaussian 16:  ES64L-G16RevA.03 25-Dec-2016

 ---------------------------------------------------------------
 #p ROCCSD(T)/cc-pVTZ Guess=Read SCF=(VeryTight,CDIIS,VShift=10)
 ---------------------------------------------------------------

 ---------
 O2_O2_227
 ---------
 Symbolic Z-matrix:
 Charge = -1 Multiplicity = 6

                         Standard orientation:
 ---------------------------------------------------------------------
 Center     Atomic      Atomic             Coordinates (Angstroms)
 Number     Number       Type             X           Y           Z
 ---------------------------------------------------------------------
      1          8           0        0.000000    0.000000    2.399575
      2          8           0        0.000000    0.000000    3.751955
      3          8           0        0.000000    0.000000   -3.751955
      4          8           0        0.000000    0.000000   -2.399575
 ---------------------------------------------------------------------

 SCF Done:  E(ROHF) =  -298.984294525     A.U. after   12 cycles
 E2 =    -0.1077694398D+01 EUMP2 =    -0.30006198892242D+03
 CCSD(T)
 CCSD(T)= -0.30003231536D+03

 The electronic state is 6-SGG.
 Alpha  occ. eigenvalues --  -20.50475 -20.50474 -20.48235 -20.48234  -1.36567
 Alpha  occ. eigenvalues --   -1.36566  -1.00639  -1.00454  -0.52738  -0.52738
 Alpha  occ. eigenvalues --   -0.52736  -0.52736  -0.51984  -0.51688  -0.32802
 Alpha  occ. eigenvalues --   -0.32802  -0.32799  -0.32799   0.19177
 Alpha virt. eigenvalues --    0.28501   0.84479   0.86383   0.89826   0.89826
 Alpha virt. eigenvalues --    0.89868   0.89868   0.94025   0.95375   0.99110
 Alpha virt. eigenvalues --    0.99110   0.99222   0.99222   1.10182   1.10185

 Mulliken charges and spin densities:
               1          2
     1  O   -0.195563   1.313575
     2  O   -0.304437   1.186425
     3  O   -0.304437   1.186425
     4  O   -0.195563   1.313575
 Sum of Mulliken charges =  -1.00000   5.00000

 Dipole moment (field-independent basis, Debye):
    X=             -0.0000    Y=             -0.0000    Z=              0.0000  Tot=              0.0000
 Quadrupole moment (field-independent basis, Debye-Ang):
   XX=            -22.1673   YY=            -22.1673   ZZ=            -77.3369
   XY=             -0.0000   XZ=              0.0000   YZ=             -0.0000

 P4SDQ=-299.9925509\CCSD=-299.980075\CCSD(T)=-300.0323154\RMSD=7.837e-0
 Normal termination of Gaussian 16 at Mon Jan 16 04:03:38 2023.
