 Gaussian 16, Revision A.03,
 Gaussian 16:  ES64L-G16RevA.03 25-Dec-2016

 ---------------------------------------------------------------
 #p ROCCSD(T)/cc-pVTZ Guess=Read SCF=(VeryTight,CDIIS,VShift=10)
 ---------------------------------------------------------------

 --------
 O2_O2_80
 --------
 Symbolic Z-matrix:
 Charge = -1 Multiplicity = 6

                         Standard orientation:
 ---------------------------------------------------------------------
 Center     Atomic      Atomic             Coordinates (Angstroms)
 Number     Number       Type             X           Y           Z
 ---------------------------------------------------------------------
      1          8           0        0.000000    0.000000    1.358919
      2          8           0        0.000000    0.000000    2.711299
      3          8           0        0.000000    0.000000   -2.711299
      4          8           0        0.000000    0.000000   -1.358919
 ---------------------------------------------------------------------

 SCF Done:  E(ROHF) =  -299.008676693     A.U. after   14 cycles
 E2 =    -0.1074952778D+01 EUMP2 =    -0.30008362947083D+03
 CCSD(T)
 CCSD(T)= -0.30005731817D+03

 The electronic state is 6-SGG.
 Alpha  occ. eigenvalues --  -20.49741 -20.49739 -20.45057 -20.45057  -1.34618
 Alpha  occ. eigenvalues --   -1.34448  -0.98840  -0.97767  -0.50957  -0.50957
 Alpha  occ. eigenvalues --   -0.50882  -0.50607  -0.50607  -0.47371  -0.30775
 Alpha  occ. eigenvalues --   -0.30775  -0.30289  -0.30289   0.16506
 Alpha virt. eigenvalues --    0.37824   0.87492   0.88965   0.88965   0.89064
 Alpha virt. eigenvalues --    0.92155   0.93321   0.93321   0.98009   0.98009
 Alpha virt. eigenvalues --    1.07685   1.07685   1.11814   1.12375   1.42402

 Mulliken charges and spin densities:
               1          2
     1  O   -0.148148   1.360325
     2  O   -0.351852   1.139675
     3  O   -0.351852   1.139675
     4  O   -0.148148   1.360325
 Sum of Mulliken charges =  -1.00000   5.00000

 Dipole moment (field-independent basis, Debye):
    X=             -0.0000    Y=             -0.0000    Z=              0.0000  Tot=              0.0000
 Quadrupole moment (field-independent basis, Debye-Ang):
   XX=            -22.1963   YY=            -22.1963   ZZ=            -51.9059
   XY=             -0.0000   XZ=              0.0000   YZ=             -0.0000

 5\MP4SDQ=-300.0188632\CCSD=-300.004814\CCSD(T)=-300.0573182\RMSD=2.905
 Normal termination of Gaussian 16 at Sun Jan 15 02:36:19 2023.
