 Gaussian 16, Revision A.03,
 Gaussian 16:  ES64L-G16RevA.03 25-Dec-2016

 ---------------------------------------------------------------
 #p ROCCSD(T)/cc-pVTZ Guess=Read SCF=(VeryTight,CDIIS,VShift=10)
 ---------------------------------------------------------------

 --------
 O2_O2_55
 --------
 Symbolic Z-matrix:
 Charge = -1 Multiplicity = 6

                         Standard orientation:
 ---------------------------------------------------------------------
 Center     Atomic      Atomic             Coordinates (Angstroms)
 Number     Number       Type             X           Y           Z
 ---------------------------------------------------------------------
      1          8           0        0.000000    0.000000    1.181937
      2          8           0        0.000000    0.000000    2.534317
      3          8           0        0.000000    0.000000   -2.534317
      4          8           0        0.000000    0.000000   -1.181937
 ---------------------------------------------------------------------

 SCF Done:  E(ROHF) =  -299.005111288     A.U. after   14 cycles
 E2 =    -0.1077948233D+01 EUMP2 =    -0.30008305952081D+03
 CCSD(T)
 CCSD(T)= -0.30005569544D+03

 The electronic state is 6-SGG.
 Alpha  occ. eigenvalues --  -20.47946 -20.47943 -20.44271 -20.44271  -1.33796
 Alpha  occ. eigenvalues --   -1.33344  -0.98715  -0.96397  -0.51519  -0.50041
 Alpha  occ. eigenvalues --   -0.50041  -0.49264  -0.49264  -0.45360  -0.30171
 Alpha  occ. eigenvalues --   -0.30171  -0.29057  -0.29057   0.15994
 Alpha virt. eigenvalues --    0.40176   0.88207   0.88942   0.88942   0.91435
 Alpha virt. eigenvalues --    0.94197   0.94197   0.98012   0.98012   0.99844
 Alpha virt. eigenvalues --    1.11643   1.11643   1.12250   1.13169   1.54199

 Mulliken charges and spin densities:
               1          2
     1  O   -0.148752   1.316269
     2  O   -0.351248   1.183731
     3  O   -0.351248   1.183731
     4  O   -0.148752   1.316269
 Sum of Mulliken charges =  -1.00000   5.00000

 Dipole moment (field-independent basis, Debye):
    X=             -0.0000    Y=              0.0000    Z=             -0.0000  Tot=              0.0000
 Quadrupole moment (field-independent basis, Debye-Ang):
   XX=            -22.1966   YY=            -22.1966   ZZ=            -48.6632
   XY=             -0.0000   XZ=              0.0000   YZ=             -0.0000

 5\MP4SDQ=-300.0166966\CCSD=-300.0027673\CCSD(T)=-300.0556954\RMSD=4.44
 Normal termination of Gaussian 16 at Sun Jan 15 01:29:53 2023.
