 Gaussian 16, Revision A.03,
 Gaussian 16:  ES64L-G16RevA.03 25-Dec-2016

 ---------------------------------------------------------------
 #p ROCCSD(T)/cc-pVTZ Guess=Read SCF=(VeryTight,CDIIS,VShift=10)
 ---------------------------------------------------------------

 ---------
 O2_O2_141
 ---------
 Symbolic Z-matrix:
 Charge = -1 Multiplicity = 6

                         Standard orientation:
 ---------------------------------------------------------------------
 Center     Atomic      Atomic             Coordinates (Angstroms)
 Number     Number       Type             X           Y           Z
 ---------------------------------------------------------------------
      1          8           0        0.000000    0.000000    1.790756
      2          8           0        0.000000    0.000000    3.143136
      3          8           0        0.000000    0.000000   -3.143136
      4          8           0        0.000000    0.000000   -1.790756
 ---------------------------------------------------------------------

 SCF Done:  E(ROHF) =  -299.000760954     A.U. after   12 cycles
 E2 =    -0.1074372856D+01 EUMP2 =    -0.30007513380934D+03
 CCSD(T)
 CCSD(T)= -0.30004790127D+03

 The electronic state is 6-SGG.
 Alpha  occ. eigenvalues --  -20.51085 -20.51083 -20.47115 -20.47115  -1.35994
 Alpha  occ. eigenvalues --   -1.35977  -0.99910  -0.99626  -0.52326  -0.52326
 Alpha  occ. eigenvalues --   -0.52282  -0.52282  -0.51119  -0.50084  -0.32163
 Alpha  occ. eigenvalues --   -0.32163  -0.32090  -0.32090   0.17850
 Alpha virt. eigenvalues --    0.33276   0.78268   0.89863   0.90028   0.90028
 Alpha virt. eigenvalues --    0.91097   0.91097   0.92387   0.98955   0.98955
 Alpha virt. eigenvalues --    1.01420   1.01420   1.10591   1.10977   1.11109

 Mulliken charges and spin densities:
               1          2
     1  O   -0.170972   1.357538
     2  O   -0.329028   1.142462
     3  O   -0.329028   1.142462
     4  O   -0.170972   1.357538
 Sum of Mulliken charges =  -1.00000   5.00000

 Dipole moment (field-independent basis, Debye):
    X=             -0.0000    Y=             -0.0000    Z=              0.0000  Tot=              0.0000
 Quadrupole moment (field-independent basis, Debye-Ang):
   XX=            -22.1954   YY=            -22.1954   ZZ=            -60.8194
   XY=             -0.0000   XZ=              0.0000   YZ=             -0.0000

 \MP4SDQ=-300.0094801\CCSD=-299.9958306\CCSD(T)=-300.0479013\RMSD=1.229
 Normal termination of Gaussian 16 at Sun Jan 15 05:15:34 2023.
