 Gaussian 16, Revision A.03,
 Gaussian 16:  ES64L-G16RevA.03 25-Dec-2016

 ---------------------------------------------------------------
 #p ROCCSD(T)/cc-pVTZ Guess=Read SCF=(VeryTight,CDIIS,VShift=10)
 ---------------------------------------------------------------

 -------
 O2_O2_5
 -------
 Symbolic Z-matrix:
 Charge = -1 Multiplicity = 6

                         Standard orientation:
 ---------------------------------------------------------------------
 Center     Atomic      Atomic             Coordinates (Angstroms)
 Number     Number       Type             X           Y           Z
 ---------------------------------------------------------------------
      1          8           0        0.000000    0.000000    0.827972
      2          8           0        0.000000    0.000000    2.180352
      3          8           0        0.000000    0.000000   -2.180352
      4          8           0        0.000000    0.000000   -0.827972
 ---------------------------------------------------------------------

 SCF Done:  E(ROHF) =  -298.928497777     A.U. after   11 cycles
 E2 =    -0.1066575209D+01 EUMP2 =    -0.29999507298612D+03
 CCSD(T)
 CCSD(T)= -0.29998439462D+03

 The electronic state is 6-SGG.
 Alpha  occ. eigenvalues --  -20.43423 -20.43422 -20.39569 -20.39556  -1.32549
 Alpha  occ. eigenvalues --   -1.29781  -1.02689  -0.90095  -0.55703  -0.48589
 Alpha  occ. eigenvalues --   -0.48589  -0.45913  -0.45913  -0.35388  -0.29977
 Alpha  occ. eigenvalues --   -0.29977  -0.22648  -0.22648   0.13414
 Alpha virt. eigenvalues --    0.54338   0.85388   0.88032   0.93464   0.93464
 Alpha virt. eigenvalues --    0.95086   0.95086   1.01276   1.01276   1.12509
 Alpha virt. eigenvalues --    1.12599   1.20105   1.20105   1.28218   1.65286

 Mulliken charges and spin densities:
               1          2
     1  O   -0.227722   1.038096
     2  O   -0.272278   1.461904
     3  O   -0.272278   1.461904
     4  O   -0.227722   1.038096
 Sum of Mulliken charges =  -1.00000   5.00000

 Dipole moment (field-independent basis, Debye):
    X=             -0.0000    Y=             -0.0000    Z=             -0.0000  Tot=              0.0000
 Quadrupole moment (field-independent basis, Debye-Ang):
   XX=            -22.0624   YY=            -22.0624   ZZ=            -40.6068
   XY=             -0.0000   XZ=              0.0000   YZ=             -0.0000

 P4SDQ=-299.9413621\CCSD=-299.9299624\CCSD(T)=-299.9843946\RMSD=3.348e-
 Normal termination of Gaussian 16 at Sat Jan 14 23:20:05 2023.
