 Gaussian 16, Revision A.03,
 Gaussian 16:  ES64L-G16RevA.03 25-Dec-2016

 ---------------------------------------------------------------
 #p ROCCSD(T)/cc-pVTZ Guess=Read SCF=(VeryTight,CDIIS,VShift=10)
 ---------------------------------------------------------------

 ---------
 O2_O2_226
 ---------
 Symbolic Z-matrix:
 Charge = -1 Multiplicity = 6

                         Standard orientation:
 ---------------------------------------------------------------------
 Center     Atomic      Atomic             Coordinates (Angstroms)
 Number     Number       Type             X           Y           Z
 ---------------------------------------------------------------------
      1          8           0        0.000000    0.000000    2.392496
      2          8           0        0.000000    0.000000    3.744876
      3          8           0        0.000000    0.000000   -3.744876
      4          8           0        0.000000    0.000000   -2.392496
 ---------------------------------------------------------------------

 SCF Done:  E(ROHF) =  -298.984364965     A.U. after    9 cycles
 E2 =    -0.1077670020D+01 EUMP2 =    -0.30006203498526D+03
 CCSD(T)
 CCSD(T)= -0.30003238132D+03

 The electronic state is 6-SGG.
 Alpha  occ. eigenvalues --  -20.50474 -20.50474 -20.48223 -20.48223  -1.36560
 Alpha  occ. eigenvalues --   -1.36558  -1.00630  -1.00446  -0.52731  -0.52731
 Alpha  occ. eigenvalues --   -0.52730  -0.52729  -0.51975  -0.51676  -0.32794
 Alpha  occ. eigenvalues --   -0.32794  -0.32790  -0.32790   0.19171
 Alpha virt. eigenvalues --    0.28533   0.84454   0.86425   0.89834   0.89834
 Alpha virt. eigenvalues --    0.89878   0.89878   0.94016   0.95414   0.99117
 Alpha virt. eigenvalues --    0.99117   0.99233   0.99233   1.10191   1.10194

 Mulliken charges and spin densities:
               1          2
     1  O   -0.195345   1.313856
     2  O   -0.304655   1.186144
     3  O   -0.304655   1.186144
     4  O   -0.195345   1.313856
 Sum of Mulliken charges =  -1.00000   5.00000

 Dipole moment (field-independent basis, Debye):
    X=             -0.0000    Y=              0.0000    Z=              0.0000  Tot=              0.0000
 Quadrupole moment (field-independent basis, Debye-Ang):
   XX=            -22.1675   YY=            -22.1675   ZZ=            -77.1321
   XY=             -0.0000   XZ=              0.0000   YZ=             -0.0000

 Q=-299.9926234\CCSD=-299.9801421\CCSD(T)=-300.0323813\RMSD=4.827e-09\P
 Normal termination of Gaussian 16 at Mon Jan 16 04:00:54 2023.
