 Gaussian 16, Revision A.03,
 Gaussian 16:  ES64L-G16RevA.03 25-Dec-2016

 ---------------------------------------------------------------
 #p ROCCSD(T)/cc-pVTZ Guess=Read SCF=(VeryTight,CDIIS,VShift=10)
 ---------------------------------------------------------------

 --------
 O2_O2_10
 --------
 Symbolic Z-matrix:
 Charge = -1 Multiplicity = 6

                         Standard orientation:
 ---------------------------------------------------------------------
 Center     Atomic      Atomic             Coordinates (Angstroms)
 Number     Number       Type             X           Y           Z
 ---------------------------------------------------------------------
      1          8           0        0.000000    0.000000    0.863368
      2          8           0        0.000000    0.000000    2.215749
      3          8           0        0.000000    0.000000   -2.215749
      4          8           0        0.000000    0.000000   -0.863368
 ---------------------------------------------------------------------

 SCF Done:  E(ROHF) =  -298.946603042     A.U. after   11 cycles
 E2 =    -0.1072342977D+01 EUMP2 =    -0.30001894601911D+03
 CCSD(T)
 CCSD(T)= -0.30000269519D+03

 The electronic state is 6-SGG.
 Alpha  occ. eigenvalues --  -20.43574 -20.43573 -20.40790 -20.40779  -1.32546
 Alpha  occ. eigenvalues --   -1.30228  -1.01718  -0.91114  -0.55069  -0.48607
 Alpha  occ. eigenvalues --   -0.48607  -0.46185  -0.46185  -0.37020  -0.29865
 Alpha  occ. eigenvalues --   -0.29865  -0.23837  -0.23837   0.13944
 Alpha virt. eigenvalues --    0.51600   0.85637   0.88484   0.93064   0.93064
 Alpha virt. eigenvalues --    0.95038   0.95038   1.00400   1.00400   1.12603
 Alpha virt. eigenvalues --    1.12664   1.19260   1.19260   1.26466   1.65671

 Mulliken charges and spin densities:
               1          2
     1  O   -0.214184   1.081353
     2  O   -0.285816   1.418647
     3  O   -0.285816   1.418647
     4  O   -0.214184   1.081353
 Sum of Mulliken charges =  -1.00000   5.00000

 Dipole moment (field-independent basis, Debye):
    X=             -0.0000    Y=              0.0000    Z=             -0.0000  Tot=              0.0000
 Quadrupole moment (field-independent basis, Debye-Ang):
   XX=            -22.0977   YY=            -22.0977   ZZ=            -41.4407
   XY=             -0.0000   XZ=              0.0000   YZ=             -0.0000

 4SDQ=-299.960622\CCSD=-299.9484221\CCSD(T)=-300.0026952\RMSD=9.513e-09
 Normal termination of Gaussian 16 at Sat Jan 14 23:33:11 2023.
