 Gaussian 16, Revision A.03,
 Gaussian 16:  ES64L-G16RevA.03 25-Dec-2016

 ---------------------------------------------------------------
 #p ROCCSD(T)/cc-pVTZ Guess=Read SCF=(VeryTight,CDIIS,VShift=10)
 ---------------------------------------------------------------

 --------
 O2_O2_78
 --------
 Symbolic Z-matrix:
 Charge = -1 Multiplicity = 6

                         Standard orientation:
 ---------------------------------------------------------------------
 Center     Atomic      Atomic             Coordinates (Angstroms)
 Number     Number       Type             X           Y           Z
 ---------------------------------------------------------------------
      1          8           0        0.000000    0.000000    1.344760
      2          8           0        0.000000    0.000000    2.697140
      3          8           0        0.000000    0.000000   -2.697140
      4          8           0        0.000000    0.000000   -1.344760
 ---------------------------------------------------------------------

 SCF Done:  E(ROHF) =  -299.008593348     A.U. after   14 cycles
 E2 =    -0.1075131881D+01 EUMP2 =    -0.30008372522958D+03
 CCSD(T)
 CCSD(T)= -0.30005735523D+03

 The electronic state is 6-SGG.
 Alpha  occ. eigenvalues --  -20.49626 -20.49624 -20.44986 -20.44985  -1.34554
 Alpha  occ. eigenvalues --   -1.34370  -0.98812  -0.97674  -0.50908  -0.50887
 Alpha  occ. eigenvalues --   -0.50887  -0.50513  -0.50513  -0.47241  -0.30721
 Alpha  occ. eigenvalues --   -0.30721  -0.30203  -0.30203   0.16468
 Alpha virt. eigenvalues --    0.37980   0.88286   0.88928   0.88928   0.89001
 Alpha virt. eigenvalues --    0.92131   0.93399   0.93399   0.97995   0.97995
 Alpha virt. eigenvalues --    1.07984   1.07984   1.11852   1.12434   1.43456

 Mulliken charges and spin densities:
               1          2
     1  O   -0.147852   1.357965
     2  O   -0.352148   1.142035
     3  O   -0.352148   1.142035
     4  O   -0.147852   1.357965
 Sum of Mulliken charges =  -1.00000   5.00000

 Dipole moment (field-independent basis, Debye):
    X=             -0.0000    Y=              0.0000    Z=              0.0000  Tot=              0.0000
 Quadrupole moment (field-independent basis, Debye-Ang):
   XX=            -22.1964   YY=            -22.1964   ZZ=            -51.6499
   XY=             -0.0000   XZ=              0.0000   YZ=             -0.0000

 MP4SDQ=-300.0188634\CCSD=-300.0048231\CCSD(T)=-300.0573552\RMSD=3.132e
 Normal termination of Gaussian 16 at Sun Jan 15 02:31:17 2023.
