 Gaussian 16, Revision A.03,
 Gaussian 16:  ES64L-G16RevA.03 25-Dec-2016

 ---------------------------------------------------------------
 #p ROCCSD(T)/cc-pVTZ Guess=Read SCF=(VeryTight,CDIIS,VShift=10)
 ---------------------------------------------------------------

 ---------
 O2_O2_135
 ---------
 Symbolic Z-matrix:
 Charge = -1 Multiplicity = 6

                         Standard orientation:
 ---------------------------------------------------------------------
 Center     Atomic      Atomic             Coordinates (Angstroms)
 Number     Number       Type             X           Y           Z
 ---------------------------------------------------------------------
      1          8           0        0.000000    0.000000    1.748280
      2          8           0        0.000000    0.000000    3.100660
      3          8           0        0.000000    0.000000   -3.100660
      4          8           0        0.000000    0.000000   -1.748280
 ---------------------------------------------------------------------

 SCF Done:  E(ROHF) =  -299.002341518     A.U. after   19 cycles
 E2 =    -0.1074101457D+01 EUMP2 =    -0.30007644297515D+03
 CCSD(T)
 CCSD(T)= -0.30004945672D+03

 The electronic state is 6-SGG.
 Alpha  occ. eigenvalues --  -20.51126 -20.51124 -20.46969 -20.46969  -1.35927
 Alpha  occ. eigenvalues --   -1.35906  -0.99831  -0.99523  -0.52275  -0.52275
 Alpha  occ. eigenvalues --   -0.52221  -0.52221  -0.51053  -0.49898  -0.32083
 Alpha  occ. eigenvalues --   -0.32083  -0.31995  -0.31995   0.17697
 Alpha virt. eigenvalues --    0.33750   0.78073   0.89905   0.89980   0.89980
 Alpha virt. eigenvalues --    0.91259   0.91259   0.92335   0.98859   0.98859
 Alpha virt. eigenvalues --    1.01781   1.01781   1.10879   1.11064   1.13384

 Mulliken charges and spin densities:
               1          2
     1  O   -0.168279   1.362349
     2  O   -0.331721   1.137651
     3  O   -0.331721   1.137651
     4  O   -0.168279   1.362349
 Sum of Mulliken charges =  -1.00000   5.00000

 Dipole moment (field-independent basis, Debye):
    X=             -0.0000    Y=              0.0000    Z=              0.0000  Tot=              0.0000
 Quadrupole moment (field-independent basis, Debye-Ang):
   XX=            -22.1968   YY=            -22.1968   ZZ=            -59.8016
   XY=             -0.0000   XZ=              0.0000   YZ=             -0.0000

 P4SDQ=-300.0111378\CCSD=-299.9973805\CCSD(T)=-300.0494567\RMSD=2.709e-
 Normal termination of Gaussian 16 at Sun Jan 15 04:58:32 2023.
