 Gaussian 16, Revision A.03,
 Gaussian 16:  ES64L-G16RevA.03 25-Dec-2016

 ---------------------------------------------------------------
 #p ROCCSD(T)/cc-pVTZ Guess=Read SCF=(VeryTight,CDIIS,VShift=10)
 ---------------------------------------------------------------

 ---------
 O2_O2_165
 ---------
 Symbolic Z-matrix:
 Charge = -1 Multiplicity = 6

                         Standard orientation:
 ---------------------------------------------------------------------
 Center     Atomic      Atomic             Coordinates (Angstroms)
 Number     Number       Type             X           Y           Z
 ---------------------------------------------------------------------
      1          8           0        0.000000    0.000000    1.960659
      2          8           0        0.000000    0.000000    3.313039
      3          8           0        0.000000    0.000000   -3.313039
      4          8           0        0.000000    0.000000   -1.960659
 ---------------------------------------------------------------------

 SCF Done:  E(ROHF) =  -298.994173204     A.U. after   12 cycles
 E2 =    -0.1075552811D+01 EUMP2 =    -0.30006972601528D+03
 CCSD(T)
 CCSD(T)= -0.30004158318D+03

 The electronic state is 6-SGG.
 Alpha  occ. eigenvalues --  -20.50800 -20.50799 -20.47536 -20.47535  -1.36171
 Alpha  occ. eigenvalues --   -1.36164  -1.00146  -0.99921  -0.52437  -0.52436
 Alpha  occ. eigenvalues --   -0.52417  -0.52417  -0.51381  -0.50698  -0.32375
 Alpha  occ. eigenvalues --   -0.32375  -0.32341  -0.32341   0.18416
 Alpha virt. eigenvalues --    0.31488   0.80231   0.89379   0.90112   0.90112
 Alpha virt. eigenvalues --    0.90598   0.90598   0.92786   0.99222   0.99222
 Alpha virt. eigenvalues --    1.00384   1.00384   1.02929   1.10658   1.10709

 Mulliken charges and spin densities:
               1          2
     1  O   -0.180208   1.339056
     2  O   -0.319792   1.160944
     3  O   -0.319792   1.160944
     4  O   -0.180208   1.339056
 Sum of Mulliken charges =  -1.00000   5.00000

 Dipole moment (field-independent basis, Debye):
    X=             -0.0000    Y=              0.0000    Z=             -0.0000  Tot=              0.0000
 Quadrupole moment (field-independent basis, Debye-Ang):
   XX=            -22.1866   YY=            -22.1866   ZZ=            -65.1537
   XY=             -0.0000   XZ=              0.0000   YZ=             -0.0000

 \MP4SDQ=-300.002666\CCSD=-299.9894805\CCSD(T)=-300.0415832\RMSD=5.196e
 Normal termination of Gaussian 16 at Sun Jan 15 06:20:42 2023.
