 Gaussian 16, Revision A.03,
 Gaussian 16:  ES64L-G16RevA.03 25-Dec-2016

 ---------------------------------------------------------------
 #p ROCCSD(T)/cc-pVTZ Guess=Read SCF=(VeryTight,CDIIS,VShift=10)
 ---------------------------------------------------------------

 --------
 O2_O2_61
 --------
 Symbolic Z-matrix:
 Charge = -1 Multiplicity = 6

                         Standard orientation:
 ---------------------------------------------------------------------
 Center     Atomic      Atomic             Coordinates (Angstroms)
 Number     Number       Type             X           Y           Z
 ---------------------------------------------------------------------
      1          8           0        0.000000    0.000000    1.224412
      2          8           0        0.000000    0.000000    2.576792
      3          8           0        0.000000    0.000000   -2.576792
      4          8           0        0.000000    0.000000   -1.224412
 ---------------------------------------------------------------------

 SCF Done:  E(ROHF) =  -299.006614324     A.U. after   14 cycles
 E2 =    -0.1077086300D+01 EUMP2 =    -0.30008370062449D+03
 CCSD(T)
 CCSD(T)= -0.30005663066D+03

 The electronic state is 6-SGG.
 Alpha  occ. eigenvalues --  -20.48456 -20.48454 -20.44436 -20.44435  -1.33995
 Alpha  occ. eigenvalues --   -1.33637  -0.98690  -0.96776  -0.51298  -0.50266
 Alpha  occ. eigenvalues --   -0.50266  -0.49621  -0.49621  -0.45933  -0.30298
 Alpha  occ. eigenvalues --   -0.30298  -0.29390  -0.29390   0.16129
 Alpha virt. eigenvalues --    0.39507   0.88432   0.88830   0.88830   0.91661
 Alpha virt. eigenvalues --    0.94008   0.94008   0.96471   0.97976   0.97976
 Alpha virt. eigenvalues --    1.10662   1.10662   1.12154   1.12959   1.51642

 Mulliken charges and spin densities:
               1          2
     1  O   -0.147564   1.330081
     2  O   -0.352436   1.169919
     3  O   -0.352436   1.169919
     4  O   -0.147564   1.330081
 Sum of Mulliken charges =  -1.00000   5.00000

 Dipole moment (field-independent basis, Debye):
    X=             -0.0000    Y=              0.0000    Z=              0.0000  Tot=              0.0000
 Quadrupole moment (field-independent basis, Debye-Ang):
   XX=            -22.1970   YY=            -22.1970   ZZ=            -49.4607
   XY=             -0.0000   XZ=              0.0000   YZ=             -0.0000

 6\MP4SDQ=-300.017779\CCSD=-300.0038216\CCSD(T)=-300.0566307\RMSD=3.047
 Normal termination of Gaussian 16 at Sun Jan 15 01:45:05 2023.
