 Gaussian 16, Revision A.03,
 Gaussian 16:  ES64L-G16RevA.03 25-Dec-2016

 ---------------------------------------------------------------
 #p ROCCSD(T)/cc-pVTZ Guess=Read SCF=(VeryTight,CDIIS,VShift=10)
 ---------------------------------------------------------------

 ---------
 O2_O2_167
 ---------
 Symbolic Z-matrix:
 Charge = -1 Multiplicity = 6

                         Standard orientation:
 ---------------------------------------------------------------------
 Center     Atomic      Atomic             Coordinates (Angstroms)
 Number     Number       Type             X           Y           Z
 ---------------------------------------------------------------------
      1          8           0        0.000000    0.000000    1.974817
      2          8           0        0.000000    0.000000    3.327197
      3          8           0        0.000000    0.000000   -3.327197
      4          8           0        0.000000    0.000000   -1.974817
 ---------------------------------------------------------------------

 SCF Done:  E(ROHF) =  -298.993658586     A.U. after   12 cycles
 E2 =    -0.1075646543D+01 EUMP2 =    -0.30006930512869D+03
 CCSD(T)
 CCSD(T)= -0.30004109627D+03

 The electronic state is 6-SGG.
 Alpha  occ. eigenvalues --  -20.50776 -20.50775 -20.47562 -20.47562  -1.36182
 Alpha  occ. eigenvalues --   -1.36176  -1.00162  -0.99940  -0.52443  -0.52443
 Alpha  occ. eigenvalues --   -0.52425  -0.52425  -0.51402  -0.50741  -0.32388
 Alpha  occ. eigenvalues --   -0.32388  -0.32356  -0.32356   0.18457
 Alpha virt. eigenvalues --    0.31353   0.80436   0.89313   0.90112   0.90112
 Alpha virt. eigenvalues --    0.90565   0.90565   0.92831   0.99235   0.99235
 Alpha virt. eigenvalues --    1.00321   1.00321   1.02423   1.10643   1.10690

 Mulliken charges and spin densities:
               1          2
     1  O   -0.180853   1.337746
     2  O   -0.319147   1.162254
     3  O   -0.319147   1.162254
     4  O   -0.180853   1.337746
 Sum of Mulliken charges =  -1.00000   5.00000

 Dipole moment (field-independent basis, Debye):
    X=             -0.0000    Y=              0.0000    Z=              0.0000  Tot=              0.0000
 Quadrupole moment (field-independent basis, Debye-Ang):
   XX=            -22.1857   YY=            -22.1857   ZZ=            -65.5290
   XY=             -0.0000   XZ=              0.0000   YZ=             -0.0000

 51\MP4SDQ=-300.0021374\CCSD=-299.9889885\CCSD(T)=-300.0410963\RMSD=3.0
 Normal termination of Gaussian 16 at Sun Jan 15 06:25:41 2023.
