 Gaussian 16, Revision A.03,
 Gaussian 16:  ES64L-G16RevA.03 25-Dec-2016

 ---------------------------------------------------------------
 #p ROCCSD(T)/cc-pVTZ Guess=Read SCF=(VeryTight,CDIIS,VShift=10)
 ---------------------------------------------------------------

 ---------
 O2_O2_159
 ---------
 Symbolic Z-matrix:
 Charge = -1 Multiplicity = 6

                         Standard orientation:
 ---------------------------------------------------------------------
 Center     Atomic      Atomic             Coordinates (Angstroms)
 Number     Number       Type             X           Y           Z
 ---------------------------------------------------------------------
      1          8           0        0.000000    0.000000    1.918183
      2          8           0        0.000000    0.000000    3.270563
      3          8           0        0.000000    0.000000   -3.270563
      4          8           0        0.000000    0.000000   -1.918183
 ---------------------------------------------------------------------

 SCF Done:  E(ROHF) =  -298.995772589     A.U. after   13 cycles
 E2 =    -0.1075263460D+01 EUMP2 =    -0.30007103604951D+03
 CCSD(T)
 CCSD(T)= -0.30004310145D+03

 The electronic state is 6-SGG.
 Alpha  occ. eigenvalues --  -20.50876 -20.50875 -20.47450 -20.47450  -1.36136
 Alpha  occ. eigenvalues --   -1.36127  -1.00095  -0.99860  -0.52417  -0.52417
 Alpha  occ. eigenvalues --   -0.52393  -0.52393  -0.51317  -0.50562  -0.32333
 Alpha  occ. eigenvalues --   -0.32333  -0.32291  -0.32291   0.18286
 Alpha virt. eigenvalues --    0.31909   0.79634   0.89552   0.90105   0.90105
 Alpha virt. eigenvalues --    0.90703   0.90703   0.92660   0.99174   0.99174
 Alpha virt. eigenvalues --    1.00592   1.00592   1.04589   1.10704   1.10767

 Mulliken charges and spin densities:
               1          2
     1  O   -0.178163   1.343250
     2  O   -0.321837   1.156750
     3  O   -0.321837   1.156750
     4  O   -0.178163   1.343250
 Sum of Mulliken charges =  -1.00000   5.00000

 Dipole moment (field-independent basis, Debye):
    X=             -0.0000    Y=              0.0000    Z=             -0.0000  Tot=              0.0000
 Quadrupole moment (field-independent basis, Debye-Ang):
   XX=            -22.1891   YY=            -22.1891   ZZ=            -64.0384
   XY=             -0.0000   XZ=              0.0000   YZ=             -0.0000

 P4SDQ=-300.0043114\CCSD=-299.9910126\CCSD(T)=-300.0431014\RMSD=6.237e-
 Normal termination of Gaussian 16 at Sun Jan 15 06:05:10 2023.
