 Gaussian 16, Revision A.03,
 Gaussian 16:  ES64L-G16RevA.03 25-Dec-2016

 ---------------------------------------------------------------
 #p ROCCSD(T)/cc-pVTZ Guess=Read SCF=(VeryTight,CDIIS,VShift=10)
 ---------------------------------------------------------------

 ---------
 O2_O2_235
 ---------
 Symbolic Z-matrix:
 Charge = -1 Multiplicity = 6

                         Standard orientation:
 ---------------------------------------------------------------------
 Center     Atomic      Atomic             Coordinates (Angstroms)
 Number     Number       Type             X           Y           Z
 ---------------------------------------------------------------------
      1          8           0        0.000000    0.000000    2.456209
      2          8           0        0.000000    0.000000    3.808589
      3          8           0        0.000000    0.000000   -3.808589
      4          8           0        0.000000    0.000000   -2.456209
 ---------------------------------------------------------------------

 SCF Done:  E(ROHF) =  -298.983800465     A.U. after    9 cycles
 E2 =    -0.1077874927D+01 EUMP2 =    -0.30006167539236D+03
 CCSD(T)
 CCSD(T)= -0.30003185218D+03

 The electronic state is 6-SGG.
 Alpha  occ. eigenvalues --  -20.50488 -20.50487 -20.48328 -20.48327  -1.36629
 Alpha  occ. eigenvalues --   -1.36628  -1.00707  -1.00524  -0.52795  -0.52795
 Alpha  occ. eigenvalues --   -0.52793  -0.52793  -0.52055  -0.51783  -0.32868
 Alpha  occ. eigenvalues --   -0.32868  -0.32866  -0.32866   0.19215
 Alpha virt. eigenvalues --    0.28259   0.84640   0.86072   0.89765   0.89765
 Alpha virt. eigenvalues --    0.89795   0.89795   0.94074   0.95103   0.99051
 Alpha virt. eigenvalues --    0.99051   0.99133   0.99133   1.10116   1.10119

 Mulliken charges and spin densities:
               1          2
     1  O   -0.197218   1.311515
     2  O   -0.302782   1.188485
     3  O   -0.302782   1.188485
     4  O   -0.197218   1.311515
 Sum of Mulliken charges =  -1.00000   5.00000

 Dipole moment (field-independent basis, Debye):
    X=             -0.0000    Y=              0.0000    Z=              0.0000  Tot=              0.0000
 Quadrupole moment (field-independent basis, Debye-Ang):
   XX=            -22.1661   YY=            -22.1661   ZZ=            -78.9928
   XY=             -0.0000   XZ=              0.0000   YZ=             -0.0000

 P4SDQ=-299.9920409\CCSD=-299.9796035\CCSD(T)=-300.0318522\RMSD=5.058e-
 Normal termination of Gaussian 16 at Mon Jan 16 04:13:04 2023.
