 Gaussian 16, Revision A.03,
 Gaussian 16:  ES64L-G16RevA.03 25-Dec-2016

 ---------------------------------------------------------------
 #p ROCCSD(T)/cc-pVTZ Guess=Read SCF=(VeryTight,CDIIS,VShift=10)
 ---------------------------------------------------------------

 ---------
 O2_O2_274
 ---------
 Symbolic Z-matrix:
 Charge = -1 Multiplicity = 6

                         Standard orientation:
 ---------------------------------------------------------------------
 Center     Atomic      Atomic             Coordinates (Angstroms)
 Number     Number       Type             X           Y           Z
 ---------------------------------------------------------------------
      1          8           0        0.000000    0.000000    2.732301
      2          8           0        0.000000    0.000000    4.084681
      3          8           0        0.000000    0.000000   -4.084681
      4          8           0        0.000000    0.000000   -2.732301
 ---------------------------------------------------------------------

 SCF Done:  E(ROHF) =  -298.982592937     A.U. after   12 cycles
 E2 =    -0.1078576621D+01 EUMP2 =    -0.30006116955779D+03
 CCSD(T)
 CCSD(T)= -0.30003070630D+03

 The electronic state is 6-SGG.
 Alpha  occ. eigenvalues --  -20.50614 -20.50614 -20.48784 -20.48783  -1.36936
 Alpha  occ. eigenvalues --   -1.36936  -1.01037  -1.00857  -0.53084  -0.53084
 Alpha  occ. eigenvalues --   -0.53084  -0.53084  -0.52381  -0.52186  -0.33196
 Alpha  occ. eigenvalues --   -0.33196  -0.33195  -0.33195   0.19312
 Alpha virt. eigenvalues --    0.27334   0.84813   0.85113   0.89459   0.89459
 Alpha virt. eigenvalues --    0.89465   0.89465   0.94015   0.94340   0.98740
 Alpha virt. eigenvalues --    0.98740   0.98762   0.98762   1.09801   1.09803

 Mulliken charges and spin densities:
               1          2
     1  O   -0.204704   1.302682
     2  O   -0.295296   1.197318
     3  O   -0.295296   1.197318
     4  O   -0.204704   1.302682
 Sum of Mulliken charges =  -1.00000   5.00000

 Dipole moment (field-independent basis, Debye):
    X=             -0.0000    Y=              0.0000    Z=             -0.0000  Tot=              0.0000
 Quadrupole moment (field-independent basis, Debye-Ang):
   XX=            -22.1626   YY=            -22.1626   ZZ=            -87.4311
   XY=             -0.0000   XZ=              0.0000   YZ=             -0.0000

 P4SDQ=-299.9907672\CCSD=-299.978438\CCSD(T)=-300.0307063\RMSD=4.278e-0
 Normal termination of Gaussian 16 at Mon Jan 16 04:58:47 2023.
