 Gaussian 16, Revision A.03,
 Gaussian 16:  ES64L-G16RevA.03 25-Dec-2016

 ---------------------------------------------------------------
 #p ROCCSD(T)/cc-pVTZ Guess=Read SCF=(VeryTight,CDIIS,VShift=10)
 ---------------------------------------------------------------

 ---------
 O2_O2_216
 ---------
 Symbolic Z-matrix:
 Charge = -1 Multiplicity = 6

                         Standard orientation:
 ---------------------------------------------------------------------
 Center     Atomic      Atomic             Coordinates (Angstroms)
 Number     Number       Type             X           Y           Z
 ---------------------------------------------------------------------
      1          8           0        0.000000    0.000000    2.321703
      2          8           0        0.000000    0.000000    3.674083
      3          8           0        0.000000    0.000000   -3.674083
      4          8           0        0.000000    0.000000   -2.321703
 ---------------------------------------------------------------------

 SCF Done:  E(ROHF) =  -298.985191967     A.U. after   11 cycles
 E2 =    -0.1077417652D+01 EUMP2 =    -0.30006260961935D+03
 CCSD(T)
 CCSD(T)= -0.30003315459D+03

 The electronic state is 6-SGG.
 Alpha  occ. eigenvalues --  -20.50472 -20.50471 -20.48109 -20.48108  -1.36485
 Alpha  occ. eigenvalues --   -1.36483  -1.00546  -1.00359  -0.52665  -0.52665
 Alpha  occ. eigenvalues --   -0.52662  -0.52662  -0.51884  -0.51550  -0.32715
 Alpha  occ. eigenvalues --   -0.32715  -0.32709  -0.32709   0.19108
 Alpha virt. eigenvalues --    0.28874   0.84140   0.86885   0.89906   0.89906
 Alpha virt. eigenvalues --    0.89973   0.89973   0.93906   0.95878   0.99183
 Alpha virt. eigenvalues --    0.99183   0.99356   0.99356   1.10274   1.10275

 Mulliken charges and spin densities:
               1          2
     1  O   -0.193215   1.316642
     2  O   -0.306785   1.183358
     3  O   -0.306785   1.183358
     4  O   -0.193215   1.316642
 Sum of Mulliken charges =  -1.00000   5.00000

 Dipole moment (field-independent basis, Debye):
    X=             -0.0000    Y=              0.0000    Z=             -0.0000  Tot=              0.0000
 Quadrupole moment (field-independent basis, Debye-Ang):
   XX=            -22.1694   YY=            -22.1694   ZZ=            -75.0961
   XY=             -0.0000   XZ=              0.0000   YZ=             -0.0000

 \MP4SDQ=-299.9934725\CCSD=-299.9809294\CCSD(T)=-300.0331546\RMSD=7.404
 Normal termination of Gaussian 16 at Sun Jan 15 08:36:17 2023.
