 Gaussian 16, Revision A.03,
 Gaussian 16:  ES64L-G16RevA.03 25-Dec-2016

 ---------------------------------------------------------------
 #p ROCCSD(T)/cc-pVTZ Guess=Read SCF=(VeryTight,CDIIS,VShift=10)
 ---------------------------------------------------------------

 ---------
 O2_O2_150
 ---------
 Symbolic Z-matrix:
 Charge = -1 Multiplicity = 6

                         Standard orientation:
 ---------------------------------------------------------------------
 Center     Atomic      Atomic             Coordinates (Angstroms)
 Number     Number       Type             X           Y           Z
 ---------------------------------------------------------------------
      1          8           0        0.000000    0.000000    1.854469
      2          8           0        0.000000    0.000000    3.206849
      3          8           0        0.000000    0.000000   -3.206849
      4          8           0        0.000000    0.000000   -1.854469
 ---------------------------------------------------------------------

 SCF Done:  E(ROHF) =  -298.998269510     A.U. after   10 cycles
 E2 =    -0.1074815068D+01 EUMP2 =    -0.30007308457790D+03
 CCSD(T)
 CCSD(T)= -0.30004548861D+03

 The electronic state is 6-SGG.
 Alpha  occ. eigenvalues --  -20.50990 -20.50989 -20.47300 -20.47300  -1.36074
 Alpha  occ. eigenvalues --   -1.36062  -1.00010  -0.99755  -0.52380  -0.52380
 Alpha  occ. eigenvalues --   -0.52348  -0.52348  -0.51218  -0.50337  -0.32259
 Alpha  occ. eigenvalues --   -0.32259  -0.32203  -0.32203   0.18074
 Alpha virt. eigenvalues --    0.32577   0.78838   0.89744   0.90078   0.90078
 Alpha virt. eigenvalues --    0.90883   0.90883   0.92502   0.99078   0.99078
 Alpha virt. eigenvalues --    1.00963   1.00963   1.07470   1.10783   1.10864

 Mulliken charges and spin densities:
               1          2
     1  O   -0.174761   1.350182
     2  O   -0.325239   1.149818
     3  O   -0.325239   1.149818
     4  O   -0.174761   1.350182
 Sum of Mulliken charges =  -1.00000   5.00000

 Dipole moment (field-independent basis, Debye):
    X=             -0.0000    Y=              0.0000    Z=              0.0000  Tot=              0.0000
 Quadrupole moment (field-independent basis, Debye-Ang):
   XX=            -22.1925   YY=            -22.1925   ZZ=            -62.4014
   XY=             -0.0000   XZ=              0.0000   YZ=             -0.0000

 46\MP4SDQ=-300.0068898\CCSD=-299.9934143\CCSD(T)=-300.0454886\RMSD=6.3
 Normal termination of Gaussian 16 at Sun Jan 15 05:38:31 2023.
