 Gaussian 16, Revision A.03,
 Gaussian 16:  ES64L-G16RevA.03 25-Dec-2016

 ---------------------------------------------------------------
 #p ROCCSD(T)/cc-pVTZ Guess=Read SCF=(VeryTight,CDIIS,VShift=10)
 ---------------------------------------------------------------

 --------
 O2_O2_97
 --------
 Symbolic Z-matrix:
 Charge = -1 Multiplicity = 6

                         Standard orientation:
 ---------------------------------------------------------------------
 Center     Atomic      Atomic             Coordinates (Angstroms)
 Number     Number       Type             X           Y           Z
 ---------------------------------------------------------------------
      1          8           0        0.000000    0.000000    1.479267
      2          8           0        0.000000    0.000000    2.831647
      3          8           0        0.000000    0.000000   -2.831647
      4          8           0        0.000000    0.000000   -1.479267
 ---------------------------------------------------------------------

 SCF Done:  E(ROHF) =  -299.008484350     A.U. after   14 cycles
 E2 =    -0.1073860098D+01 EUMP2 =    -0.30008234444818D+03
 CCSD(T)
 CCSD(T)= -0.30005628696D+03

 The electronic state is 6-SGG.
 Alpha  occ. eigenvalues --  -20.50547 -20.50545 -20.45691 -20.45690  -1.35139
 Alpha  occ. eigenvalues --   -1.35051  -0.99141  -0.98469  -0.51516  -0.51516
 Alpha  occ. eigenvalues --   -0.51317  -0.51317  -0.50784  -0.48340  -0.31246
 Alpha  occ. eigenvalues --   -0.31246  -0.30963  -0.30963   0.16828
 Alpha virt. eigenvalues --    0.36588   0.82079   0.89349   0.89349   0.89534
 Alpha virt. eigenvalues --    0.92266   0.92636   0.92636   0.98197   0.98197
 Alpha virt. eigenvalues --    1.05347   1.05347   1.11490   1.11891   1.32980

 Mulliken charges and spin densities:
               1          2
     1  O   -0.152298   1.373397
     2  O   -0.347702   1.126603
     3  O   -0.347702   1.126603
     4  O   -0.152298   1.373397
 Sum of Mulliken charges =  -1.00000   5.00000

 Dipole moment (field-independent basis, Debye):
    X=             -0.0000    Y=             -0.0000    Z=             -0.0000  Tot=              0.0000
 Quadrupole moment (field-independent basis, Debye-Ang):
   XX=            -22.1971   YY=            -22.1971   ZZ=            -54.1247
   XY=             -0.0000   XZ=              0.0000   YZ=             -0.0000

 4\MP4SDQ=-300.0180791\CCSD=-300.0039867\CCSD(T)=-300.056287\RMSD=3.794
 Normal termination of Gaussian 16 at Sun Jan 15 03:21:41 2023.
