 Gaussian 16, Revision A.03,
 Gaussian 16:  ES64L-G16RevA.03 25-Dec-2016

 ---------------------------------------------------------------
 #p ROCCSD(T)/cc-pVTZ Guess=Read SCF=(VeryTight,CDIIS,VShift=10)
 ---------------------------------------------------------------

 ---------
 O2_O2_142
 ---------
 Symbolic Z-matrix:
 Charge = -1 Multiplicity = 6

                         Standard orientation:
 ---------------------------------------------------------------------
 Center     Atomic      Atomic             Coordinates (Angstroms)
 Number     Number       Type             X           Y           Z
 ---------------------------------------------------------------------
      1          8           0        0.000000    0.000000    1.797835
      2          8           0        0.000000    0.000000    3.150215
      3          8           0        0.000000    0.000000   -3.150215
      4          8           0        0.000000    0.000000   -1.797835
 ---------------------------------------------------------------------

 SCF Done:  E(ROHF) =  -299.000489212     A.U. after   13 cycles
 E2 =    -0.1074420522D+01 EUMP2 =    -0.30007490973416D+03
 CCSD(T)
 CCSD(T)= -0.30004763612D+03

 The electronic state is 6-SGG.
 Alpha  occ. eigenvalues --  -20.51076 -20.51075 -20.47138 -20.47137  -1.36004
 Alpha  occ. eigenvalues --   -1.35988  -0.99922  -0.99642  -0.52333  -0.52333
 Alpha  occ. eigenvalues --   -0.52291  -0.52291  -0.51130  -0.50114  -0.32175
 Alpha  occ. eigenvalues --   -0.32175  -0.32104  -0.32104   0.17875
 Alpha virt. eigenvalues --    0.33197   0.78317   0.89853   0.90035   0.90035
 Alpha virt. eigenvalues --    0.91071   0.91071   0.92398   0.98969   0.98969
 Alpha virt. eigenvalues --    1.01365   1.01365   1.10327   1.10963   1.10966

 Mulliken charges and spin densities:
               1          2
     1  O   -0.171410   1.356719
     2  O   -0.328590   1.143281
     3  O   -0.328590   1.143281
     4  O   -0.171410   1.356719
 Sum of Mulliken charges =  -1.00000   5.00000

 Dipole moment (field-independent basis, Debye):
    X=             -0.0000    Y=              0.0000    Z=             -0.0000  Tot=              0.0000
 Quadrupole moment (field-independent basis, Debye-Ang):
   XX=            -22.1951   YY=            -22.1951   ZZ=            -60.9921
   XY=             -0.0000   XZ=              0.0000   YZ=             -0.0000

 MP4SDQ=-300.0091964\CCSD=-299.9955657\CCSD(T)=-300.0476361\RMSD=7.493e
 Normal termination of Gaussian 16 at Sun Jan 15 05:17:55 2023.
