 Gaussian 16, Revision A.03,
 Gaussian 16:  ES64L-G16RevA.03 25-Dec-2016

 ---------------------------------------------------------------
 #p ROCCSD(T)/cc-pVTZ Guess=Read SCF=(VeryTight,CDIIS,VShift=10)
 ---------------------------------------------------------------

 ---------
 O2_O2_294
 ---------
 Symbolic Z-matrix:
 Charge = -1 Multiplicity = 6

                         Standard orientation:
 ---------------------------------------------------------------------
 Center     Atomic      Atomic             Coordinates (Angstroms)
 Number     Number       Type             X           Y           Z
 ---------------------------------------------------------------------
      1          8           0        0.000000    0.000000    2.873887
      2          8           0        0.000000    0.000000    4.226267
      3          8           0        0.000000    0.000000   -4.226267
      4          8           0        0.000000    0.000000   -2.873887
 ---------------------------------------------------------------------

 SCF Done:  E(ROHF) =  -298.982379145     A.U. after    9 cycles
 E2 =    -0.1078856198D+01 EUMP2 =    -0.30006123534239D+03
 CCSD(T)
 CCSD(T)= -0.30003049555D+03

 The electronic state is 6-SGG.
 Alpha  occ. eigenvalues --  -20.50697 -20.50696 -20.49005 -20.49005  -1.37088
 Alpha  occ. eigenvalues --   -1.37087  -1.01195  -1.01017  -0.53230  -0.53230
 Alpha  occ. eigenvalues --   -0.53230  -0.53230  -0.52532  -0.52364  -0.33356
 Alpha  occ. eigenvalues --   -0.33356  -0.33356  -0.33356   0.19331
 Alpha virt. eigenvalues --    0.26964   0.84717   0.84842   0.89309   0.89309
 Alpha virt. eigenvalues --    0.89312   0.89312   0.93892   0.94109   0.98584
 Alpha virt. eigenvalues --    0.98584   0.98598   0.98598   1.09650   1.09651

 Mulliken charges and spin densities:
               1          2
     1  O   -0.208097   1.298777
     2  O   -0.291903   1.201223
     3  O   -0.291903   1.201223
     4  O   -0.208097   1.298777
 Sum of Mulliken charges =  -1.00000   5.00000

 Dipole moment (field-independent basis, Debye):
    X=             -0.0000    Y=             -0.0000    Z=             -0.0000  Tot=              0.0000
 Quadrupole moment (field-independent basis, Debye-Ang):
   XX=            -22.1617   YY=            -22.1617   ZZ=            -92.0246
   XY=             -0.0000   XZ=              0.0000   YZ=             -0.0000

 P4SDQ=-299.9905247\CCSD=-299.9782241\CCSD(T)=-300.0304955\RMSD=7.020e-
 Normal termination of Gaussian 16 at Mon Jan 16 05:23:08 2023.
