 Gaussian 16, Revision A.03,
 Gaussian 16:  ES64L-G16RevA.03 25-Dec-2016

 ---------------------------------------------------------------
 #p ROCCSD(T)/cc-pVTZ Guess=Read SCF=(VeryTight,CDIIS,VShift=10)
 ---------------------------------------------------------------

 --------
 O2_O2_22
 --------
 Symbolic Z-matrix:
 Charge = -1 Multiplicity = 6

                         Standard orientation:
 ---------------------------------------------------------------------
 Center     Atomic      Atomic             Coordinates (Angstroms)
 Number     Number       Type             X           Y           Z
 ---------------------------------------------------------------------
      1          8           0        0.000000    0.000000    0.948320
      2          8           0        0.000000    0.000000    2.300700
      3          8           0        0.000000    0.000000   -2.300700
      4          8           0        0.000000    0.000000   -0.948320
 ---------------------------------------------------------------------

 SCF Done:  E(ROHF) =  -298.976295807     A.U. after   11 cycles
 E2 =    -0.1079679961D+01 EUMP2 =    -0.30005597576747D+03
 CCSD(T)
 CCSD(T)= -0.30003131982D+03

 The electronic state is 6-SGG.
 Alpha  occ. eigenvalues --  -20.43736 -20.43736 -20.43441 -20.43435  -1.32761
 Alpha  occ. eigenvalues --   -1.31229  -1.00148  -0.93134  -0.53755  -0.48849
 Alpha  occ. eigenvalues --   -0.48849  -0.46953  -0.46953  -0.40230  -0.29792
 Alpha  occ. eigenvalues --   -0.29792  -0.26043  -0.26043   0.14830
 Alpha virt. eigenvalues --    0.46719   0.86432   0.89447   0.91695   0.91695
 Alpha virt. eigenvalues --    0.94918   0.94918   0.99021   0.99021   1.12529
 Alpha virt. eigenvalues --    1.12638   1.17185   1.17185   1.21206   1.65726

 Mulliken charges and spin densities:
               1          2
     1  O   -0.184163   1.173579
     2  O   -0.315837   1.326421
     3  O   -0.315837   1.326421
     4  O   -0.184163   1.173579
 Sum of Mulliken charges =  -1.00000   5.00000

 Dipole moment (field-independent basis, Debye):
    X=             -0.0000    Y=              0.0000    Z=             -0.0000  Tot=              0.0000
 Quadrupole moment (field-independent basis, Debye-Ang):
   XX=            -22.1531   YY=            -22.1531   ZZ=            -43.5771
   XY=             -0.0000   XZ=              0.0000   YZ=             -0.0000

 MP4SDQ=-299.9907873\CCSD=-299.977455\CCSD(T)=-300.0313198\RMSD=6.841e-
 Normal termination of Gaussian 16 at Sun Jan 15 00:05:47 2023.
