 Gaussian 16, Revision A.03,
 Gaussian 16:  ES64L-G16RevA.03 25-Dec-2016

 ---------------------------------------------------------------
 #p ROCCSD(T)/cc-pVTZ Guess=Read SCF=(VeryTight,CDIIS,VShift=10)
 ---------------------------------------------------------------

 --------
 O2_O2_93
 --------
 Symbolic Z-matrix:
 Charge = -1 Multiplicity = 6

                         Standard orientation:
 ---------------------------------------------------------------------
 Center     Atomic      Atomic             Coordinates (Angstroms)
 Number     Number       Type             X           Y           Z
 ---------------------------------------------------------------------
      1          8           0        0.000000    0.000000    1.450950
      2          8           0        0.000000    0.000000    2.803330
      3          8           0        0.000000    0.000000   -2.803330
      4          8           0        0.000000    0.000000   -1.450950
 ---------------------------------------------------------------------

 SCF Done:  E(ROHF) =  -299.008668193     A.U. after   14 cycles
 E2 =    -0.1074047451D+01 EUMP2 =    -0.30008271564440D+03
 CCSD(T)
 CCSD(T)= -0.30005663934D+03

 The electronic state is 6-SGG.
 Alpha  occ. eigenvalues --  -20.50386 -20.50384 -20.45539 -20.45538  -1.35022
 Alpha  occ. eigenvalues --   -1.34920  -0.99063  -0.98316  -0.51393  -0.51393
 Alpha  occ. eigenvalues --   -0.51166  -0.51166  -0.50789  -0.48132  -0.31136
 Alpha  occ. eigenvalues --   -0.31136  -0.30815  -0.30815   0.16750
 Alpha virt. eigenvalues --    0.36870   0.83136   0.89255   0.89255   0.89435
 Alpha virt. eigenvalues --    0.92253   0.92800   0.92800   0.98142   0.98142
 Alpha virt. eigenvalues --    1.05860   1.05860   1.11566   1.12001   1.35241

 Mulliken charges and spin densities:
               1          2
     1  O   -0.151086   1.371432
     2  O   -0.348914   1.128568
     3  O   -0.348914   1.128568
     4  O   -0.151086   1.371432
 Sum of Mulliken charges =  -1.00000   5.00000

 Dipole moment (field-independent basis, Debye):
    X=             -0.0000    Y=              0.0000    Z=              0.0000  Tot=              0.0000
 Quadrupole moment (field-independent basis, Debye-Ang):
   XX=            -22.1968   YY=            -22.1968   ZZ=            -53.5923
   XY=             -0.0000   XZ=              0.0000   YZ=             -0.0000

 6\MP4SDQ=-300.018386\CCSD=-300.0042964\CCSD(T)=-300.0566393\RMSD=3.936
 Normal termination of Gaussian 16 at Sun Jan 15 03:11:27 2023.
