 Gaussian 16, Revision A.03,
 Gaussian 16:  ES64L-G16RevA.03 25-Dec-2016

 ---------------------------------------------------------------
 #p ROCCSD(T)/cc-pVTZ Guess=Read SCF=(VeryTight,CDIIS,VShift=10)
 ---------------------------------------------------------------

 ---------
 O2_O2_296
 ---------
 Symbolic Z-matrix:
 Charge = -1 Multiplicity = 6

                         Standard orientation:
 ---------------------------------------------------------------------
 Center     Atomic      Atomic             Coordinates (Angstroms)
 Number     Number       Type             X           Y           Z
 ---------------------------------------------------------------------
      1          8           0        0.000000    0.000000    2.888046
      2          8           0        0.000000    0.000000    4.240426
      3          8           0        0.000000    0.000000   -4.240426
      4          8           0        0.000000    0.000000   -2.888046
 ---------------------------------------------------------------------

 SCF Done:  E(ROHF) =  -298.982364818     A.U. after    9 cycles
 E2 =    -0.1078882042D+01 EUMP2 =    -0.30006124685998D+03
 CCSD(T)
 CCSD(T)= -0.30003048111D+03

 The electronic state is 6-SGG.
 Alpha  occ. eigenvalues --  -20.50705 -20.50705 -20.49026 -20.49026  -1.37102
 Alpha  occ. eigenvalues --   -1.37102  -1.01211  -1.01032  -0.53244  -0.53244
 Alpha  occ. eigenvalues --   -0.53244  -0.53244  -0.52547  -0.52381  -0.33372
 Alpha  occ. eigenvalues --   -0.33372  -0.33372  -0.33372   0.19332
 Alpha virt. eigenvalues --    0.26930   0.84704   0.84820   0.89294   0.89294
 Alpha virt. eigenvalues --    0.89297   0.89297   0.93879   0.94089   0.98569
 Alpha virt. eigenvalues --    0.98569   0.98583   0.98583   1.09635   1.09637

 Mulliken charges and spin densities:
               1          2
     1  O   -0.208418   1.298407
     2  O   -0.291582   1.201593
     3  O   -0.291582   1.201593
     4  O   -0.208418   1.298407
 Sum of Mulliken charges =  -1.00000   5.00000

 Dipole moment (field-independent basis, Debye):
    X=             -0.0000    Y=              0.0000    Z=             -0.0000  Tot=              0.0000
 Quadrupole moment (field-independent basis, Debye-Ang):
   XX=            -22.1616   YY=            -22.1616   ZZ=            -92.4946
   XY=             -0.0000   XZ=              0.0000   YZ=             -0.0000

 P4SDQ=-299.9905077\CCSD=-299.9782095\CCSD(T)=-300.0304811\RMSD=7.190e-
 Normal termination of Gaussian 16 at Mon Jan 16 05:25:25 2023.
