 Gaussian 16, Revision A.03,
 Gaussian 16:  ES64L-G16RevA.03 25-Dec-2016

 ---------------------------------------------------------------
 #p ROCCSD(T)/cc-pVTZ Guess=Read SCF=(VeryTight,CDIIS,VShift=10)
 ---------------------------------------------------------------

 ---------
 O2_O2_144
 ---------
 Symbolic Z-matrix:
 Charge = -1 Multiplicity = 6

                         Standard orientation:
 ---------------------------------------------------------------------
 Center     Atomic      Atomic             Coordinates (Angstroms)
 Number     Number       Type             X           Y           Z
 ---------------------------------------------------------------------
      1          8           0        0.000000    0.000000    1.811994
      2          8           0        0.000000    0.000000    3.164374
      3          8           0        0.000000    0.000000   -3.164374
      4          8           0        0.000000    0.000000   -1.811994
 ---------------------------------------------------------------------

 SCF Done:  E(ROHF) =  -298.999940601     A.U. after   13 cycles
 E2 =    -0.1074517291D+01 EUMP2 =    -0.30007445789148D+03
 CCSD(T)
 CCSD(T)= -0.30004710249D+03

 The electronic state is 6-SGG.
 Alpha  occ. eigenvalues --  -20.51056 -20.51055 -20.47181 -20.47181  -1.36023
 Alpha  occ. eigenvalues --   -1.36008  -0.99945  -0.99672  -0.52347  -0.52347
 Alpha  occ. eigenvalues --   -0.52307  -0.52307  -0.51152  -0.50172  -0.32198
 Alpha  occ. eigenvalues --   -0.32198  -0.32131  -0.32131   0.17925
 Alpha virt. eigenvalues --    0.33041   0.78426   0.89831   0.90047   0.90047
 Alpha virt. eigenvalues --    0.91021   0.91021   0.92421   0.98998   0.98998
 Alpha virt. eigenvalues --    1.01257   1.01257   1.09626   1.10872   1.10937

 Mulliken charges and spin densities:
               1          2
     1  O   -0.172273   1.355076
     2  O   -0.327727   1.144924
     3  O   -0.327727   1.144924
     4  O   -0.172273   1.355076
 Sum of Mulliken charges =  -1.00000   5.00000

 Dipole moment (field-independent basis, Debye):
    X=             -0.0000    Y=              0.0000    Z=              0.0000  Tot=              0.0000
 Quadrupole moment (field-independent basis, Debye-Ang):
   XX=            -22.1945   YY=            -22.1945   ZZ=            -61.3398
   XY=             -0.0000   XZ=              0.0000   YZ=             -0.0000

 79\MP4SDQ=-300.0086247\CCSD=-299.9950321\CCSD(T)=-300.0471025\RMSD=8.7
 Normal termination of Gaussian 16 at Sun Jan 15 05:22:53 2023.
