 Gaussian 16, Revision A.03,
 Gaussian 16:  ES64L-G16RevA.03 25-Dec-2016

 ---------------------------------------------------------------
 #p ROCCSD(T)/cc-pVTZ Guess=Read SCF=(VeryTight,CDIIS,VShift=10)
 ---------------------------------------------------------------

 ---------
 O2_O2_197
 ---------
 Symbolic Z-matrix:
 Charge = -1 Multiplicity = 6

                         Standard orientation:
 ---------------------------------------------------------------------
 Center     Atomic      Atomic             Coordinates (Angstroms)
 Number     Number       Type             X           Y           Z
 ---------------------------------------------------------------------
      1          8           0        0.000000    0.000000    2.187196
      2          8           0        0.000000    0.000000    3.539576
      3          8           0        0.000000    0.000000   -3.539576
      4          8           0        0.000000    0.000000   -2.187196
 ---------------------------------------------------------------------

 SCF Done:  E(ROHF) =  -298.987511047     A.U. after   12 cycles
 E2 =    -0.1076846965D+01 EUMP2 =    -0.30006435801227D+03
 CCSD(T)
 CCSD(T)= -0.30003532086D+03

 The electronic state is 6-SGG.
 Alpha  occ. eigenvalues --  -20.50519 -20.50518 -20.47900 -20.47900  -1.36355
 Alpha  occ. eigenvalues --   -1.36352  -1.00392  -1.00198  -0.52557  -0.52557
 Alpha  occ. eigenvalues --   -0.52551  -0.52551  -0.51705  -0.51281  -0.32576
 Alpha  occ. eigenvalues --   -0.32576  -0.32565  -0.32565   0.18933
 Alpha virt. eigenvalues --    0.29657   0.83139   0.87899   0.90024   0.90024
 Alpha virt. eigenvalues --    0.90171   0.90171   0.93560   0.97327   0.99272
 Alpha virt. eigenvalues --    0.99272   0.99636   0.99636   1.10425   1.10433

 Mulliken charges and spin densities:
               1          2
     1  O   -0.188931   1.322899
     2  O   -0.311069   1.177101
     3  O   -0.311069   1.177101
     4  O   -0.188931   1.322899
 Sum of Mulliken charges =  -1.00000   5.00000

 Dipole moment (field-independent basis, Debye):
    X=             -0.0000    Y=             -0.0000    Z=             -0.0000  Tot=              0.0000
 Quadrupole moment (field-independent basis, Debye-Ang):
   XX=            -22.1744   YY=            -22.1744   ZZ=            -71.3104
   XY=             -0.0000   XZ=              0.0000   YZ=             -0.0000

 4SDQ=-299.9958443\CCSD=-299.9831331\CCSD(T)=-300.0353209\RMSD=7.781e-0
 Normal termination of Gaussian 16 at Sun Jan 15 07:44:54 2023.
