 Gaussian 16, Revision A.03,
 Gaussian 16:  ES64L-G16RevA.03 25-Dec-2016

 ---------------------------------------------------------------
 #p ROCCSD(T)/cc-pVTZ Guess=Read SCF=(VeryTight,CDIIS,VShift=10)
 ---------------------------------------------------------------

 --------
 O2_O2_16
 --------
 Symbolic Z-matrix:
 Charge = -1 Multiplicity = 6

                         Standard orientation:
 ---------------------------------------------------------------------
 Center     Atomic      Atomic             Coordinates (Angstroms)
 Number     Number       Type             X           Y           Z
 ---------------------------------------------------------------------
      1          8           0        0.000000    0.000000    0.905844
      2          8           0        0.000000    0.000000    2.258224
      3          8           0        0.000000    0.000000   -2.258224
      4          8           0        0.000000    0.000000   -0.905844
 ---------------------------------------------------------------------

 SCF Done:  E(ROHF) =  -298.963542856     A.U. after   12 cycles
 E2 =    -0.1077067595D+01 EUMP2 =    -0.30004061045113D+03
 CCSD(T)
 CCSD(T)= -0.30001928334D+03

 The electronic state is 6-SGG.
 Alpha  occ. eigenvalues --  -20.43676 -20.43675 -20.42181 -20.42172  -1.32626
 Alpha  occ. eigenvalues --   -1.30741  -1.00820  -0.92198  -0.54376  -0.48698
 Alpha  occ. eigenvalues --   -0.48698  -0.46547  -0.46547  -0.38744  -0.29803
 Alpha  occ. eigenvalues --   -0.29803  -0.25050  -0.25050   0.14442
 Alpha virt. eigenvalues --    0.48896   0.86020   0.88986   0.92431   0.92431
 Alpha virt. eigenvalues --    0.94984   0.94984   0.99585   0.99585   1.12647
 Alpha virt. eigenvalues --    1.12657   1.18225   1.18225   1.24011   1.66396

 Mulliken charges and spin densities:
               1          2
     1  O   -0.198335   1.130080
     2  O   -0.301665   1.369920
     3  O   -0.301665   1.369920
     4  O   -0.198335   1.130080
 Sum of Mulliken charges =  -1.00000   5.00000

 Dipole moment (field-independent basis, Debye):
    X=             -0.0000    Y=              0.0000    Z=              0.0000  Tot=              0.0000
 Quadrupole moment (field-independent basis, Debye-Ang):
   XX=            -22.1297   YY=            -22.1297   ZZ=            -42.5044
   XY=             -0.0000   XZ=              0.0000   YZ=             -0.0000

 5\MP4SDQ=-299.978103\CCSD=-299.9652123\CCSD(T)=-300.0192833\RMSD=8.772
 Normal termination of Gaussian 16 at Sat Jan 14 23:48:24 2023.
