 Gaussian 16, Revision A.03,
 Gaussian 16:  ES64L-G16RevA.03 25-Dec-2016

 ---------------------------------------------------------------
 #p ROCCSD(T)/cc-pVTZ Guess=Read SCF=(VeryTight,CDIIS,VShift=10)
 ---------------------------------------------------------------

 ---------
 O2_O2_232
 ---------
 Symbolic Z-matrix:
 Charge = -1 Multiplicity = 6

                         Standard orientation:
 ---------------------------------------------------------------------
 Center     Atomic      Atomic             Coordinates (Angstroms)
 Number     Number       Type             X           Y           Z
 ---------------------------------------------------------------------
      1          8           0        0.000000    0.000000    2.434971
      2          8           0        0.000000    0.000000    3.787351
      3          8           0        0.000000    0.000000   -3.787351
      4          8           0        0.000000    0.000000   -2.434971
 ---------------------------------------------------------------------

 SCF Done:  E(ROHF) =  -298.983971940     A.U. after    9 cycles
 E2 =    -0.1077808865D+01 EUMP2 =    -0.30006178080493D+03
 CCSD(T)
 CCSD(T)= -0.30003201309D+03

 The electronic state is 6-SGG.
 Alpha  occ. eigenvalues --  -20.50482 -20.50481 -20.48293 -20.48292  -1.36606
 Alpha  occ. eigenvalues --   -1.36605  -1.00681  -1.00498  -0.52773  -0.52773
 Alpha  occ. eigenvalues --   -0.52772  -0.52772  -0.52029  -0.51748  -0.32843
 Alpha  occ. eigenvalues --   -0.32843  -0.32840  -0.32840   0.19201
 Alpha virt. eigenvalues --    0.28347   0.84587   0.86183   0.89788   0.89788
 Alpha virt. eigenvalues --    0.89822   0.89822   0.94059   0.95198   0.99074
 Alpha virt. eigenvalues --    0.99074   0.99165   0.99165   1.10141   1.10144

 Mulliken charges and spin densities:
               1          2
     1  O   -0.196600   1.312279
     2  O   -0.303400   1.187721
     3  O   -0.303400   1.187721
     4  O   -0.196600   1.312279
 Sum of Mulliken charges =  -1.00000   5.00000

 Dipole moment (field-independent basis, Debye):
    X=             -0.0000    Y=             -0.0000    Z=              0.0000  Tot=              0.0000
 Quadrupole moment (field-independent basis, Debye-Ang):
   XX=            -22.1665   YY=            -22.1665   ZZ=            -78.3693
   XY=             -0.0000   XZ=              0.0000   YZ=             -0.0000

 P4SDQ=-299.9922182\CCSD=-299.9797673\CCSD(T)=-300.0320131\RMSD=3.378e-
 Normal termination of Gaussian 16 at Mon Jan 16 04:09:32 2023.
