 Gaussian 16, Revision A.03,
 Gaussian 16:  ES64L-G16RevA.03 25-Dec-2016

 ---------------------------------------------------------------
 #p ROCCSD(T)/cc-pVTZ Guess=Read SCF=(VeryTight,CDIIS,VShift=10)
 ---------------------------------------------------------------

 --------
 O2_O2_39
 --------
 Symbolic Z-matrix:
 Charge = -1 Multiplicity = 6

                         Standard orientation:
 ---------------------------------------------------------------------
 Center     Atomic      Atomic             Coordinates (Angstroms)
 Number     Number       Type             X           Y           Z
 ---------------------------------------------------------------------
      1          8           0        0.000000    0.000000    1.068668
      2          8           0        0.000000    0.000000    2.421048
      3          8           0        0.000000    0.000000   -2.421048
      4          8           0        0.000000    0.000000   -1.068668
 ---------------------------------------------------------------------

 SCF Done:  E(ROHF) =  -298.997123596     A.U. after   14 cycles
 E2 =    -0.1080271401D+01 EUMP2 =    -0.30007739499649D+03
 CCSD(T)
 CCSD(T)= -0.30004964243D+03

 The electronic state is 6-SGG.
 Alpha  occ. eigenvalues --  -20.46207 -20.46203 -20.43931 -20.43931  -1.33271
 Alpha  occ. eigenvalues --   -1.32439  -0.99061  -0.95130  -0.52369  -0.49437
 Alpha  occ. eigenvalues --   -0.49437  -0.48196  -0.48196  -0.43389  -0.29911
 Alpha  occ. eigenvalues --   -0.29911  -0.27948  -0.27948   0.15558
 Alpha virt. eigenvalues --    0.42541   0.87483   0.89817   0.89817   0.90594
 Alpha virt. eigenvalues --    0.94621   0.94621   0.98257   0.98257   1.09084
 Alpha virt. eigenvalues --    1.12478   1.14297   1.14297   1.14319   1.60328

 Mulliken charges and spin densities:
               1          2
     1  O   -0.157910   1.264600
     2  O   -0.342090   1.235400
     3  O   -0.342090   1.235400
     4  O   -0.157910   1.264600
 Sum of Mulliken charges =  -1.00000   5.00000

 Dipole moment (field-independent basis, Debye):
    X=             -0.0000    Y=              0.0000    Z=             -0.0000  Tot=              0.0000
 Quadrupole moment (field-independent basis, Debye-Ang):
   XX=            -22.1880   YY=            -22.1880   ZZ=            -46.3829
   XY=             -0.0000   XZ=              0.0000   YZ=             -0.0000

 P4SDQ=-300.0101401\CCSD=-299.9963203\CCSD(T)=-300.0496424\RMSD=4.551e-
 Normal termination of Gaussian 16 at Sun Jan 15 00:48:24 2023.
