 Gaussian 16, Revision A.03,
 Gaussian 16:  ES64L-G16RevA.03 25-Dec-2016

 ---------------------------------------------------------------
 #p ROCCSD(T)/cc-pVTZ Guess=Read SCF=(VeryTight,CDIIS,VShift=10)
 ---------------------------------------------------------------

 --------
 O2_O2_42
 --------
 Symbolic Z-matrix:
 Charge = -1 Multiplicity = 6

                         Standard orientation:
 ---------------------------------------------------------------------
 Center     Atomic      Atomic             Coordinates (Angstroms)
 Number     Number       Type             X           Y           Z
 ---------------------------------------------------------------------
      1          8           0        0.000000    0.000000    1.089906
      2          8           0        0.000000    0.000000    2.442286
      3          8           0        0.000000    0.000000   -2.442286
      4          8           0        0.000000    0.000000   -1.089906
 ---------------------------------------------------------------------

 SCF Done:  E(ROHF) =  -298.999220089     A.U. after   11 cycles
 E2 =    -0.1079891958D+01 EUMP2 =    -0.30007911204623D+03
 CCSD(T)
 CCSD(T)= -0.30005132866D+03

 The electronic state is 6-SGG.
 Alpha  occ. eigenvalues --  -20.46585 -20.46581 -20.43983 -20.43983  -1.33368
 Alpha  occ. eigenvalues --   -1.32625  -0.98958  -0.95403  -0.52178  -0.49550
 Alpha  occ. eigenvalues --   -0.49550  -0.48409  -0.48409  -0.43818  -0.29950
 Alpha  occ. eigenvalues --   -0.29950  -0.28190  -0.28190   0.15652
 Alpha virt. eigenvalues --    0.42013   0.87637   0.89581   0.89581   0.90773
 Alpha virt. eigenvalues --    0.94551   0.94551   0.98190   0.98190   1.07495
 Alpha virt. eigenvalues --    1.12439   1.13795   1.13795   1.13925   1.59248

 Mulliken charges and spin densities:
               1          2
     1  O   -0.155300   1.276311
     2  O   -0.344700   1.223689
     3  O   -0.344700   1.223689
     4  O   -0.155300   1.276311
 Sum of Mulliken charges =  -1.00000   5.00000

 Dipole moment (field-independent basis, Debye):
    X=             -0.0000    Y=              0.0000    Z=              0.0000  Tot=              0.0000
 Quadrupole moment (field-independent basis, Debye-Ang):
   XX=            -22.1908   YY=            -22.1908   ZZ=            -46.8331
   XY=             -0.0000   XZ=              0.0000   YZ=             -0.0000

 MP4SDQ=-300.0119397\CCSD=-299.9980898\CCSD(T)=-300.0513287\RMSD=8.373e
 Normal termination of Gaussian 16 at Sun Jan 15 00:55:51 2023.
