 Gaussian 16, Revision A.03,
 Gaussian 16:  ES64L-G16RevA.03 25-Dec-2016

 ---------------------------------------------------------------
 #p ROCCSD(T)/cc-pVTZ Guess=Read SCF=(VeryTight,CDIIS,VShift=10)
 ---------------------------------------------------------------

 ---------
 O2_O2_238
 ---------
 Symbolic Z-matrix:
 Charge = -1 Multiplicity = 6

                         Standard orientation:
 ---------------------------------------------------------------------
 Center     Atomic      Atomic             Coordinates (Angstroms)
 Number     Number       Type             X           Y           Z
 ---------------------------------------------------------------------
      1          8           0        0.000000    0.000000    2.477447
      2          8           0        0.000000    0.000000    3.829827
      3          8           0        0.000000    0.000000   -3.829827
      4          8           0        0.000000    0.000000   -2.477447
 ---------------------------------------------------------------------

 SCF Done:  E(ROHF) =  -298.983644109     A.U. after    9 cycles
 E2 =    -0.1077938897D+01 EUMP2 =    -0.30006158300546D+03
 CCSD(T)
 CCSD(T)= -0.30003170526D+03

 The electronic state is 6-SGG.
 Alpha  occ. eigenvalues --  -20.50494 -20.50493 -20.48363 -20.48363  -1.36653
 Alpha  occ. eigenvalues --   -1.36652  -1.00733  -1.00550  -0.52816  -0.52816
 Alpha  occ. eigenvalues --   -0.52815  -0.52815  -0.52082  -0.51817  -0.32893
 Alpha  occ. eigenvalues --   -0.32893  -0.32891  -0.32891   0.19227
 Alpha virt. eigenvalues --    0.28175   0.84685   0.85968   0.89742   0.89742
 Alpha virt. eigenvalues --    0.89768   0.89768   0.94086   0.95016   0.99028
 Alpha virt. eigenvalues --    0.99028   0.99101   0.99101   1.10091   1.10094

 Mulliken charges and spin densities:
               1          2
     1  O   -0.197831   1.310766
     2  O   -0.302169   1.189234
     3  O   -0.302169   1.189234
     4  O   -0.197831   1.310766
 Sum of Mulliken charges =  -1.00000   5.00000

 Dipole moment (field-independent basis, Debye):
    X=             -0.0000    Y=              0.0000    Z=             -0.0000  Tot=              0.0000
 Quadrupole moment (field-independent basis, Debye-Ang):
   XX=            -22.1657   YY=            -22.1657   ZZ=            -79.6196
   XY=             -0.0000   XZ=              0.0000   YZ=             -0.0000

 SDQ=-299.9918788\CCSD=-299.9794539\CCSD(T)=-300.0317053\RMSD=6.551e-09
 Normal termination of Gaussian 16 at Mon Jan 16 04:16:36 2023.
