 Gaussian 16, Revision A.03,
 Gaussian 16:  ES64L-G16RevA.03 25-Dec-2016

 ---------------------------------------------------------------
 #p ROCCSD(T)/cc-pVTZ Guess=Read SCF=(VeryTight,CDIIS,VShift=10)
 ---------------------------------------------------------------

 ---------
 O2_O2_114
 ---------
 Symbolic Z-matrix:
 Charge = -1 Multiplicity = 6

                         Standard orientation:
 ---------------------------------------------------------------------
 Center     Atomic      Atomic             Coordinates (Angstroms)
 Number     Number       Type             X           Y           Z
 ---------------------------------------------------------------------
      1          8           0        0.000000    0.000000    1.599615
      2          8           0        0.000000    0.000000    2.951995
      3          8           0        0.000000    0.000000   -2.951995
      4          8           0        0.000000    0.000000   -1.599615
 ---------------------------------------------------------------------

 SCF Done:  E(ROHF) =  -299.006714423     A.U. after   12 cycles
 E2 =    -0.1073551366D+01 EUMP2 =    -0.30008026578867D+03
 CCSD(T)
 CCSD(T)= -0.30005400583D+03

 The electronic state is 6-SGG.
 Alpha  occ. eigenvalues --  -20.51015 -20.51014 -20.46320 -20.46320  -1.35571
 Alpha  occ. eigenvalues --   -1.35525  -0.99480  -0.99030  -0.51955  -0.51955
 Alpha  occ. eigenvalues --   -0.51843  -0.51843  -0.50853  -0.49124  -0.31684
 Alpha  occ. eigenvalues --   -0.31684  -0.31517  -0.31517   0.17185
 Alpha virt. eigenvalues --    0.35369   0.79014   0.89703   0.89703   0.89834
 Alpha virt. eigenvalues --    0.91961   0.91961   0.92275   0.98483   0.98483
 Alpha virt. eigenvalues --    1.03459   1.03459   1.11187   1.11464   1.23568

 Mulliken charges and spin densities:
               1          2
     1  O   -0.158734   1.374358
     2  O   -0.341266   1.125642
     3  O   -0.341266   1.125642
     4  O   -0.158734   1.374358
 Sum of Mulliken charges =  -1.00000   5.00000

 Dipole moment (field-independent basis, Debye):
    X=             -0.0000    Y=              0.0000    Z=             -0.0000  Tot=              0.0000
 Quadrupole moment (field-independent basis, Debye-Ang):
   XX=            -22.1984   YY=            -22.1984   ZZ=            -56.5064
   XY=             -0.0000   XZ=              0.0000   YZ=             -0.0000

 58\MP4SDQ=-300.0158753\CCSD=-300.0018476\CCSD(T)=-300.0540058\RMSD=1.7
 Normal termination of Gaussian 16 at Sun Jan 15 04:06:22 2023.
