 Gaussian 16, Revision A.03,
 Gaussian 16:  ES64L-G16RevA.03 25-Dec-2016

 ---------------------------------------------------------------
 #p ROCCSD(T)/cc-pVTZ Guess=Read SCF=(VeryTight,CDIIS,VShift=10)
 ---------------------------------------------------------------

 ---------
 O2_O2_241
 ---------
 Symbolic Z-matrix:
 Charge = -1 Multiplicity = 6

                         Standard orientation:
 ---------------------------------------------------------------------
 Center     Atomic      Atomic             Coordinates (Angstroms)
 Number     Number       Type             X           Y           Z
 ---------------------------------------------------------------------
      1          8           0        0.000000    0.000000    2.498685
      2          8           0        0.000000    0.000000    3.851065
      3          8           0        0.000000    0.000000   -3.851065
      4          8           0        0.000000    0.000000   -2.498685
 ---------------------------------------------------------------------

 SCF Done:  E(ROHF) =  -298.983501753     A.U. after    9 cycles
 E2 =    -0.1078000877D+01 EUMP2 =    -0.30006150263060D+03
 CCSD(T)
 CCSD(T)= -0.30003157130D+03

 The electronic state is 6-SGG.
 Alpha  occ. eigenvalues --  -20.50501 -20.50500 -20.48398 -20.48398  -1.36676
 Alpha  occ. eigenvalues --   -1.36675  -1.00758  -1.00576  -0.52838  -0.52838
 Alpha  occ. eigenvalues --   -0.52837  -0.52837  -0.52108  -0.51851  -0.32918
 Alpha  occ. eigenvalues --   -0.32918  -0.32916  -0.32916   0.19238
 Alpha virt. eigenvalues --    0.28092   0.84723   0.85869   0.89718   0.89718
 Alpha virt. eigenvalues --    0.89741   0.89741   0.94093   0.94936   0.99005
 Alpha virt. eigenvalues --    0.99005   0.99070   0.99070   1.10066   1.10069

 Mulliken charges and spin densities:
               1          2
     1  O   -0.198438   1.310031
     2  O   -0.301562   1.189969
     3  O   -0.301562   1.189969
     4  O   -0.198438   1.310031
 Sum of Mulliken charges =  -1.00000   5.00000

 Dipole moment (field-independent basis, Debye):
    X=             -0.0000    Y=              0.0000    Z=              0.0000  Tot=              0.0000
 Quadrupole moment (field-independent basis, Debye-Ang):
   XX=            -22.1653   YY=            -22.1653   ZZ=            -80.2499
   XY=             -0.0000   XZ=              0.0000   YZ=             -0.0000

 P4SDQ=-299.9917309\CCSD=-299.9793176\CCSD(T)=-300.0315713\RMSD=7.908e-
 Normal termination of Gaussian 16 at Mon Jan 16 04:20:05 2023.
