 Gaussian 16, Revision A.03,
 Gaussian 16:  ES64L-G16RevA.03 25-Dec-2016

 ---------------------------------------------------------------
 #p ROCCSD(T)/cc-pVTZ Guess=Read SCF=(VeryTight,CDIIS,VShift=10)
 ---------------------------------------------------------------

 ---------
 O2_O2_231
 ---------
 Symbolic Z-matrix:
 Charge = -1 Multiplicity = 6

                         Standard orientation:
 ---------------------------------------------------------------------
 Center     Atomic      Atomic             Coordinates (Angstroms)
 Number     Number       Type             X           Y           Z
 ---------------------------------------------------------------------
      1          8           0        0.000000    0.000000    2.427892
      2          8           0        0.000000    0.000000    3.780272
      3          8           0        0.000000    0.000000   -3.780272
      4          8           0        0.000000    0.000000   -2.427892
 ---------------------------------------------------------------------

 SCF Done:  E(ROHF) =  -298.984032660     A.U. after   11 cycles
 E2 =    -0.1077786825D+01 EUMP2 =    -0.30006181948537D+03
 CCSD(T)
 CCSD(T)= -0.30003207002D+03

 The electronic state is 6-SGG.
 Alpha  occ. eigenvalues --  -20.50480 -20.50480 -20.48281 -20.48281  -1.36598
 Alpha  occ. eigenvalues --   -1.36597  -1.00673  -1.00489  -0.52766  -0.52766
 Alpha  occ. eigenvalues --   -0.52765  -0.52765  -0.52020  -0.51736  -0.32835
 Alpha  occ. eigenvalues --   -0.32835  -0.32832  -0.32832   0.19197
 Alpha virt. eigenvalues --    0.28377   0.84567   0.86222   0.89796   0.89796
 Alpha virt. eigenvalues --    0.89831   0.89831   0.94053   0.95231   0.99081
 Alpha virt. eigenvalues --    0.99081   0.99176   0.99176   1.10149   1.10152

 Mulliken charges and spin densities:
               1          2
     1  O   -0.196398   1.312526
     2  O   -0.303602   1.187474
     3  O   -0.303602   1.187474
     4  O   -0.196398   1.312526
 Sum of Mulliken charges =  -1.00000   5.00000

 Dipole moment (field-independent basis, Debye):
    X=             -0.0000    Y=              0.0000    Z=              0.0000  Tot=              0.0000
 Quadrupole moment (field-independent basis, Debye-Ang):
   XX=            -22.1667   YY=            -22.1667   ZZ=            -78.1618
   XY=             -0.0000   XZ=              0.0000   YZ=             -0.0000

 P4SDQ=-299.9922809\CCSD=-299.9798252\CCSD(T)=-300.03207\RMSD=1.021e-09
 Normal termination of Gaussian 16 at Mon Jan 16 04:08:21 2023.
