 Gaussian 16, Revision A.03,
 Gaussian 16:  ES64L-G16RevA.03 25-Dec-2016

 ---------------------------------------------------------------
 #p ROCCSD(T)/cc-pVTZ Guess=Read SCF=(VeryTight,CDIIS,VShift=10)
 ---------------------------------------------------------------

 --------
 O2_O2_35
 --------
 Symbolic Z-matrix:
 Charge = -1 Multiplicity = 6

                         Standard orientation:
 ---------------------------------------------------------------------
 Center     Atomic      Atomic             Coordinates (Angstroms)
 Number     Number       Type             X           Y           Z
 ---------------------------------------------------------------------
      1          8           0        0.000000    0.000000    1.040351
      2          8           0        0.000000    0.000000    2.392731
      3          8           0        0.000000    0.000000   -2.392731
      4          8           0        0.000000    0.000000   -1.040351
 ---------------------------------------------------------------------

 SCF Done:  E(ROHF) =  -298.993738994     A.U. after   11 cycles
 E2 =    -0.1080654067D+01 EUMP2 =    -0.30007439306075D+03
 CCSD(T)
 CCSD(T)= -0.30004683367D+03

 The electronic state is 6-SGG.
 Alpha  occ. eigenvalues --  -20.45657 -20.45652 -20.43872 -20.43871  -1.33143
 Alpha  occ. eigenvalues --   -1.32179  -0.99233  -0.94734  -0.52648  -0.49288
 Alpha  occ. eigenvalues --   -0.49288  -0.47905  -0.47905  -0.42764  -0.29867
 Alpha  occ. eigenvalues --   -0.29867  -0.27591  -0.27591   0.15421
 Alpha virt. eigenvalues --    0.43323   0.87262   0.90184   0.90184   0.90342
 Alpha virt. eigenvalues --    0.94706   0.94706   0.98368   0.98368   1.10766
 Alpha virt. eigenvalues --    1.12526   1.14968   1.14968   1.15250   1.61716

 Mulliken charges and spin densities:
               1          2
     1  O   -0.162234   1.247178
     2  O   -0.337766   1.252822
     3  O   -0.337766   1.252822
     4  O   -0.162234   1.247178
 Sum of Mulliken charges =  -1.00000   5.00000

 Dipole moment (field-independent basis, Debye):
    X=             -0.0000    Y=              0.0000    Z=              0.0000  Tot=              0.0000
 Quadrupole moment (field-independent basis, Debye-Ang):
   XX=            -22.1829   YY=            -22.1829   ZZ=            -45.7624
   XY=             -0.0000   XZ=              0.0000   YZ=             -0.0000

 P4SDQ=-300.0071578\CCSD=-299.9933939\CCSD(T)=-300.0468337\RMSD=3.339e-
 Normal termination of Gaussian 16 at Sun Jan 15 00:38:25 2023.
