 Gaussian 16, Revision A.03,
 Gaussian 16:  ES64L-G16RevA.03 25-Dec-2016

 ---------------------------------------------------------------
 #p ROCCSD(T)/cc-pVTZ Guess=Read SCF=(VeryTight,CDIIS,VShift=10)
 ---------------------------------------------------------------

 --------
 O2_O2_43
 --------
 Symbolic Z-matrix:
 Charge = -1 Multiplicity = 6

                         Standard orientation:
 ---------------------------------------------------------------------
 Center     Atomic      Atomic             Coordinates (Angstroms)
 Number     Number       Type             X           Y           Z
 ---------------------------------------------------------------------
      1          8           0        0.000000    0.000000    1.096985
      2          8           0        0.000000    0.000000    2.449365
      3          8           0        0.000000    0.000000   -2.449365
      4          8           0        0.000000    0.000000   -1.096985
 ---------------------------------------------------------------------

 SCF Done:  E(ROHF) =  -298.999845086     A.U. after   12 cycles
 E2 =    -0.1079753880D+01 EUMP2 =    -0.30007959896574D+03
 CCSD(T)
 CCSD(T)= -0.30005182153D+03

 The electronic state is 6-SGG.
 Alpha  occ. eigenvalues --  -20.46705 -20.46701 -20.44002 -20.44001  -1.33401
 Alpha  occ. eigenvalues --   -1.32685  -0.98928  -0.95490  -0.52118  -0.49588
 Alpha  occ. eigenvalues --   -0.49588  -0.48478  -0.48478  -0.43954  -0.29964
 Alpha  occ. eigenvalues --   -0.29964  -0.28267  -0.28267   0.15681
 Alpha virt. eigenvalues --    0.41848   0.87687   0.89510   0.89511   0.90831
 Alpha virt. eigenvalues --    0.94526   0.94526   0.98170   0.98170   1.06930
 Alpha virt. eigenvalues --    1.12425   1.13629   1.13629   1.13828   1.58881

 Mulliken charges and spin densities:
               1          2
     1  O   -0.154539   1.279979
     2  O   -0.345461   1.220021
     3  O   -0.345461   1.220021
     4  O   -0.154539   1.279979
 Sum of Mulliken charges =  -1.00000   5.00000

 Dipole moment (field-independent basis, Debye):
    X=             -0.0000    Y=              0.0000    Z=              0.0000  Tot=              0.0000
 Quadrupole moment (field-independent basis, Debye-Ang):
   XX=            -22.1916   YY=            -22.1916   ZZ=            -46.9804
   XY=             -0.0000   XZ=              0.0000   YZ=             -0.0000

 4SDQ=-300.0124678\CCSD=-299.9986094\CCSD(T)=-300.0518215\RMSD=1.554e-0
 Normal termination of Gaussian 16 at Sun Jan 15 00:58:21 2023.
