 Gaussian 16, Revision A.03,
 Gaussian 16:  ES64L-G16RevA.03 25-Dec-2016

 ---------------------------------------------------------------
 #p ROCCSD(T)/cc-pVTZ Guess=Read SCF=(VeryTight,CDIIS,VShift=10)
 ---------------------------------------------------------------

 ---------
 O2_O2_131
 ---------
 Symbolic Z-matrix:
 Charge = -1 Multiplicity = 6

                         Standard orientation:
 ---------------------------------------------------------------------
 Center     Atomic      Atomic             Coordinates (Angstroms)
 Number     Number       Type             X           Y           Z
 ---------------------------------------------------------------------
      1          8           0        0.000000    0.000000    1.719962
      2          8           0        0.000000    0.000000    3.072343
      3          8           0        0.000000    0.000000   -3.072343
      4          8           0        0.000000    0.000000   -1.719962
 ---------------------------------------------------------------------

 SCF Done:  E(ROHF) =  -299.003332401     A.U. after   18 cycles
 E2 =    -0.1073939854D+01 EUMP2 =    -0.30007727225477D+03
 CCSD(T)
 CCSD(T)= -0.30005044675D+03

 The electronic state is 6-SGG.
 Alpha  occ. eigenvalues --  -20.51138 -20.51137 -20.46862 -20.46862  -1.35874
 Alpha  occ. eigenvalues --   -1.35850  -0.99773  -0.99446  -0.52232  -0.52232
 Alpha  occ. eigenvalues --   -0.52170  -0.52170  -0.51010  -0.49765  -0.32022
 Alpha  occ. eigenvalues --   -0.32022  -0.31922  -0.31922   0.17596
 Alpha virt. eigenvalues --    0.34066   0.78043   0.89917   0.89941   0.89941
 Alpha virt. eigenvalues --    0.91378   0.91378   0.92311   0.98791   0.98791
 Alpha virt. eigenvalues --    1.02048   1.02048   1.10937   1.11129   1.15150

 Mulliken charges and spin densities:
               1          2
     1  O   -0.166439   1.365365
     2  O   -0.333561   1.134635
     3  O   -0.333561   1.134635
     4  O   -0.166439   1.365365
 Sum of Mulliken charges =  -1.00000   5.00000

 Dipole moment (field-independent basis, Debye):
    X=             -0.0000    Y=              0.0000    Z=             -0.0000  Tot=              0.0000
 Quadrupole moment (field-independent basis, Debye-Ang):
   XX=            -22.1975   YY=            -22.1975   ZZ=            -59.1413
   XY=             -0.0000   XZ=              0.0000   YZ=             -0.0000

 3\MP4SDQ=-300.0121859\CCSD=-299.9983628\CCSD(T)=-300.0504468\RMSD=2.88
 Normal termination of Gaussian 16 at Sun Jan 15 04:48:33 2023.
