 Gaussian 16, Revision A.03,
 Gaussian 16:  ES64L-G16RevA.03 25-Dec-2016

 ---------------------------------------------------------------
 #p ROCCSD(T)/cc-pVTZ Guess=Read SCF=(VeryTight,CDIIS,VShift=10)
 ---------------------------------------------------------------

 ---------
 O2_O2_251
 ---------
 Symbolic Z-matrix:
 Charge = -1 Multiplicity = 6

                         Standard orientation:
 ---------------------------------------------------------------------
 Center     Atomic      Atomic             Coordinates (Angstroms)
 Number     Number       Type             X           Y           Z
 ---------------------------------------------------------------------
      1          8           0        0.000000    0.000000    2.569478
      2          8           0        0.000000    0.000000    3.921858
      3          8           0        0.000000    0.000000   -3.921858
      4          8           0        0.000000    0.000000   -2.569478
 ---------------------------------------------------------------------

 SCF Done:  E(ROHF) =  -298.983115013     A.U. after   11 cycles
 E2 =    -0.1078194472D+01 EUMP2 =    -0.30006130948507D+03
 CCSD(T)
 CCSD(T)= -0.30003120601D+03

 The electronic state is 6-SGG.
 Alpha  occ. eigenvalues --  -20.50530 -20.50529 -20.48516 -20.48516  -1.36756
 Alpha  occ. eigenvalues --   -1.36755  -1.00844  -1.00663  -0.52912  -0.52912
 Alpha  occ. eigenvalues --   -0.52912  -0.52912  -0.52193  -0.51959  -0.33003
 Alpha  occ. eigenvalues --   -0.33003  -0.33002  -0.33002   0.19269
 Alpha virt. eigenvalues --    0.27837   0.84804   0.85582   0.89639   0.89639
 Alpha virt. eigenvalues --    0.89654   0.89654   0.94097   0.94710   0.98925
 Alpha virt. eigenvalues --    0.98925   0.98970   0.98970   1.09984   1.09987

 Mulliken charges and spin densities:
               1          2
     1  O   -0.200421   1.307668
     2  O   -0.299579   1.192332
     3  O   -0.299579   1.192332
     4  O   -0.200421   1.307668
 Sum of Mulliken charges =  -1.00000   5.00000

 Dipole moment (field-independent basis, Debye):
    X=             -0.0000    Y=              0.0000    Z=              0.0000  Tot=              0.0000
 Quadrupole moment (field-independent basis, Debye-Ang):
   XX=            -22.1642   YY=            -22.1642   ZZ=            -82.3766
   XY=             -0.0000   XZ=              0.0000   YZ=             -0.0000

 SDQ=-299.9913264\CCSD=-299.9789459\CCSD(T)=-300.031206\RMSD=5.767e-10\
 Normal termination of Gaussian 16 at Mon Jan 16 04:31:45 2023.
