 Gaussian 16, Revision A.03,
 Gaussian 16:  ES64L-G16RevA.03 25-Dec-2016

 ---------------------------------------------------------------
 #p ROCCSD(T)/cc-pVTZ Guess=Read SCF=(VeryTight,CDIIS,VShift=10)
 ---------------------------------------------------------------

 ---------
 O2_O2_107
 ---------
 Symbolic Z-matrix:
 Charge = -1 Multiplicity = 6

                         Standard orientation:
 ---------------------------------------------------------------------
 Center     Atomic      Atomic             Coordinates (Angstroms)
 Number     Number       Type             X           Y           Z
 ---------------------------------------------------------------------
      1          8           0        0.000000    0.000000    1.550060
      2          8           0        0.000000    0.000000    2.902440
      3          8           0        0.000000    0.000000   -2.902440
      4          8           0        0.000000    0.000000   -1.550060
 ---------------------------------------------------------------------

 SCF Done:  E(ROHF) =  -299.007642571     A.U. after   14 cycles
 E2 =    -0.1073583775D+01 EUMP2 =    -0.30008122634566D+03
 CCSD(T)
 CCSD(T)= -0.30005510333D+03

 The electronic state is 6-SGG.
 Alpha  occ. eigenvalues --  -20.50866 -20.50864 -20.46067 -20.46067  -1.35407
 Alpha  occ. eigenvalues --   -1.35347  -0.99342  -0.98816  -0.51792  -0.51792
 Alpha  occ. eigenvalues --   -0.51651  -0.51651  -0.50810  -0.48820  -0.31513
 Alpha  occ. eigenvalues --   -0.31513  -0.31305  -0.31305   0.17032
 Alpha virt. eigenvalues --    0.35879   0.80003   0.89570   0.89570   0.89735
 Alpha virt. eigenvalues --    0.92232   0.92232   0.92275   0.98358   0.98358
 Alpha virt. eigenvalues --    1.04178   1.04178   1.11306   1.11630   1.27368

 Mulliken charges and spin densities:
               1          2
     1  O   -0.155861   1.375368
     2  O   -0.344139   1.124632
     3  O   -0.344139   1.124632
     4  O   -0.155861   1.375368
 Sum of Mulliken charges =  -1.00000   5.00000

 Dipole moment (field-independent basis, Debye):
    X=             -0.0000    Y=              0.0000    Z=              0.0000  Tot=              0.0000
 Quadrupole moment (field-independent basis, Debye-Ang):
   XX=            -22.1979   YY=            -22.1979   ZZ=            -55.4990
   XY=             -0.0000   XZ=              0.0000   YZ=             -0.0000

 63\MP4SDQ=-300.0169654\CCSD=-300.0028946\CCSD(T)=-300.0551033\RMSD=1.8
 Normal termination of Gaussian 16 at Sun Jan 15 03:46:47 2023.
