 Gaussian 16, Revision A.03,
 Gaussian 16:  ES64L-G16RevA.03 25-Dec-2016

 ---------------------------------------------------------------
 #p ROCCSD(T)/cc-pVTZ Guess=Read SCF=(VeryTight,CDIIS,VShift=10)
 ---------------------------------------------------------------

 ---------
 O2_O2_281
 ---------
 Symbolic Z-matrix:
 Charge = -1 Multiplicity = 6

                         Standard orientation:
 ---------------------------------------------------------------------
 Center     Atomic      Atomic             Coordinates (Angstroms)
 Number     Number       Type             X           Y           Z
 ---------------------------------------------------------------------
      1          8           0        0.000000    0.000000    2.781857
      2          8           0        0.000000    0.000000    4.134237
      3          8           0        0.000000    0.000000   -4.134237
      4          8           0        0.000000    0.000000   -2.781857
 ---------------------------------------------------------------------

 SCF Done:  E(ROHF) =  -298.982500701     A.U. after    9 cycles
 E2 =    -0.1078679192D+01 EUMP2 =    -0.30006117989253D+03
 CCSD(T)
 CCSD(T)= -0.30003061621D+03

 The electronic state is 6-SGG.
 Alpha  occ. eigenvalues --  -20.50643 -20.50642 -20.48863 -20.48862  -1.36990
 Alpha  occ. eigenvalues --   -1.36989  -1.01093  -1.00914  -0.53136  -0.53136
 Alpha  occ. eigenvalues --   -0.53136  -0.53136  -0.52435  -0.52250  -0.33253
 Alpha  occ. eigenvalues --   -0.33253  -0.33253  -0.33253   0.19320
 Alpha virt. eigenvalues --    0.27199   0.84786   0.85008   0.89406   0.89406
 Alpha virt. eigenvalues --    0.89410   0.89410   0.93975   0.94253   0.98685
 Alpha virt. eigenvalues --    0.98685   0.98703   0.98703   1.09747   1.09749

 Mulliken charges and spin densities:
               1          2
     1  O   -0.205928   1.301271
     2  O   -0.294072   1.198729
     3  O   -0.294072   1.198729
     4  O   -0.205928   1.301271
 Sum of Mulliken charges =  -1.00000   5.00000

 Dipole moment (field-independent basis, Debye):
    X=             -0.0000    Y=              0.0000    Z=              0.0000  Tot=              0.0000
 Quadrupole moment (field-independent basis, Debye-Ang):
   XX=            -22.1622   YY=            -22.1622   ZZ=            -89.0172
   XY=             -0.0000   XZ=              0.0000   YZ=             -0.0000

 P4SDQ=-299.9906645\CCSD=-299.9783466\CCSD(T)=-300.0306162\RMSD=7.203e-
 Normal termination of Gaussian 16 at Mon Jan 16 05:08:10 2023.
