 Gaussian 16, Revision A.03,
 Gaussian 16:  ES64L-G16RevA.03 25-Dec-2016

 ---------------------------------------------------------------
 #p ROCCSD(T)/cc-pVTZ Guess=Read SCF=(VeryTight,CDIIS,VShift=10)
 ---------------------------------------------------------------

 -------
 O2_O2_1
 -------
 Symbolic Z-matrix:
 Charge = -1 Multiplicity = 6

                         Standard orientation:
 ---------------------------------------------------------------------
 Center     Atomic      Atomic             Coordinates (Angstroms)
 Number     Number       Type             X           Y           Z
 ---------------------------------------------------------------------
      1          8           0        0.000000    0.000000    0.799655
      2          8           0        0.000000    0.000000    2.152035
      3          8           0        0.000000    0.000000   -2.152035
      4          8           0        0.000000    0.000000   -0.799655
 ---------------------------------------------------------------------

 SCF Done:  E(ROHF) =  -298.910878809     A.U. after   11 cycles
 E2 =    -0.1060799402D+01 EUMP2 =    -0.29997167821120D+03
 CCSD(T)
 CCSD(T)= -0.29996615190D+03

 The electronic state is 6-SGG.
 Alpha  occ. eigenvalues --  -20.43236 -20.43235 -20.38583 -20.38567  -1.32624
 Alpha  occ. eigenvalues --   -1.29410  -1.03646  -0.89204  -0.56247  -0.48620
 Alpha  occ. eigenvalues --   -0.48620  -0.45704  -0.45704  -0.33949  -0.30129
 Alpha  occ. eigenvalues --   -0.30129  -0.21588  -0.21588   0.12896
 Alpha virt. eigenvalues --    0.56889   0.85279   0.87652   0.93697   0.93697
 Alpha virt. eigenvalues --    0.95135   0.95135   1.02078   1.02078   1.12384
 Alpha virt. eigenvalues --    1.12502   1.20757   1.20757   1.29429   1.65162

 Mulliken charges and spin densities:
               1          2
     1  O   -0.238101   1.002858
     2  O   -0.261899   1.497142
     3  O   -0.261899   1.497142
     4  O   -0.238101   1.002858
 Sum of Mulliken charges =  -1.00000   5.00000

 Dipole moment (field-independent basis, Debye):
    X=             -0.0000    Y=             -0.0000    Z=              0.0000  Tot=              0.0000
 Quadrupole moment (field-independent basis, Debye-Ang):
   XX=            -22.0276   YY=            -22.0276   ZZ=            -40.0056
   XY=             -0.0000   XZ=              0.0000   YZ=             -0.0000

 4SDQ=-299.9222232\CCSD=-299.9116029\CCSD(T)=-299.9661519\RMSD=3.769e-0
 Normal termination of Gaussian 16 at Sat Jan 14 23:09:41 2023.
