 Gaussian 16, Revision A.03,
 Gaussian 16:  ES64L-G16RevA.03 25-Dec-2016

 ---------------------------------------------------------------
 #p ROCCSD(T)/cc-pVTZ Guess=Read SCF=(VeryTight,CDIIS,VShift=10)
 ---------------------------------------------------------------

 ---------
 O2_O2_224
 ---------
 Symbolic Z-matrix:
 Charge = -1 Multiplicity = 6

                         Standard orientation:
 ---------------------------------------------------------------------
 Center     Atomic      Atomic             Coordinates (Angstroms)
 Number     Number       Type             X           Y           Z
 ---------------------------------------------------------------------
      1          8           0        0.000000    0.000000    2.378337
      2          8           0        0.000000    0.000000    3.730717
      3          8           0        0.000000    0.000000   -3.730717
      4          8           0        0.000000    0.000000   -2.378337
 ---------------------------------------------------------------------

 SCF Done:  E(ROHF) =  -298.984512157     A.U. after   12 cycles
 E2 =    -0.1077622325D+01 EUMP2 =    -0.30006213448162D+03
 CCSD(T)
 CCSD(T)= -0.30003251905D+03

 The electronic state is 6-SGG.
 Alpha  occ. eigenvalues --  -20.50473 -20.50472 -20.48200 -20.48200  -1.36544
 Alpha  occ. eigenvalues --   -1.36543  -1.00613  -1.00428  -0.52718  -0.52718
 Alpha  occ. eigenvalues --   -0.52716  -0.52716  -0.51957  -0.51652  -0.32778
 Alpha  occ. eigenvalues --   -0.32778  -0.32774  -0.32774   0.19160
 Alpha virt. eigenvalues --    0.28598   0.84401   0.86512   0.89848   0.89848
 Alpha virt. eigenvalues --    0.89896   0.89896   0.93998   0.95495   0.99131
 Alpha virt. eigenvalues --    0.99131   0.99257   0.99257   1.10207   1.10210

 Mulliken charges and spin densities:
               1          2
     1  O   -0.194931   1.314382
     2  O   -0.305069   1.185618
     3  O   -0.305069   1.185618
     4  O   -0.194931   1.314382
 Sum of Mulliken charges =  -1.00000   5.00000

 Dipole moment (field-independent basis, Debye):
    X=             -0.0000    Y=              0.0000    Z=             -0.0000  Tot=              0.0000
 Quadrupole moment (field-independent basis, Debye-Ang):
   XX=            -22.1678   YY=            -22.1678   ZZ=            -76.7218
   XY=             -0.0000   XZ=              0.0000   YZ=             -0.0000

 45\MP4SDQ=-299.9927748\CCSD=-299.9802824\CCSD(T)=-300.0325191\RMSD=8.1
 Normal termination of Gaussian 16 at Sun Jan 15 08:56:56 2023.
