 Gaussian 16, Revision A.03,
 Gaussian 16:  ES64L-G16RevA.03 25-Dec-2016

 ---------------------------------------------------------------
 #p ROCCSD(T)/cc-pVTZ Guess=Read SCF=(VeryTight,CDIIS,VShift=10)
 ---------------------------------------------------------------

 ---------
 O2_O2_256
 ---------
 Symbolic Z-matrix:
 Charge = -1 Multiplicity = 6

                         Standard orientation:
 ---------------------------------------------------------------------
 Center     Atomic      Atomic             Coordinates (Angstroms)
 Number     Number       Type             X           Y           Z
 ---------------------------------------------------------------------
      1          8           0        0.000000    0.000000    2.604874
      2          8           0        0.000000    0.000000    3.957254
      3          8           0        0.000000    0.000000   -3.957254
      4          8           0        0.000000    0.000000   -2.604874
 ---------------------------------------------------------------------

 SCF Done:  E(ROHF) =  -298.982964446     A.U. after   16 cycles
 E2 =    -0.1078284323D+01 EUMP2 =    -0.30006124876914D+03
 CCSD(T)
 CCSD(T)= -0.30003106299D+03

 The electronic state is 6-SGG.
 Alpha  occ. eigenvalues --  -20.50547 -20.50546 -20.48575 -20.48575  -1.36795
 Alpha  occ. eigenvalues --   -1.36794  -1.00887  -1.00706  -0.52950  -0.52950
 Alpha  occ. eigenvalues --   -0.52949  -0.52949  -0.52235  -0.52011  -0.33045
 Alpha  occ. eigenvalues --   -0.33045  -0.33044  -0.33044   0.19281
 Alpha virt. eigenvalues --    0.27719   0.84823   0.85460   0.89600   0.89600
 Alpha virt. eigenvalues --    0.89612   0.89612   0.94088   0.94615   0.98885
 Alpha virt. eigenvalues --    0.98885   0.98923   0.98923   1.09943   1.09946

 Mulliken charges and spin densities:
               1          2
     1  O   -0.201385   1.306535
     2  O   -0.298615   1.193465
     3  O   -0.298615   1.193465
     4  O   -0.201385   1.306535
 Sum of Mulliken charges =  -1.00000   5.00000

 Dipole moment (field-independent basis, Debye):
    X=             -0.0000    Y=              0.0000    Z=              0.0000  Tot=              0.0000
 Quadrupole moment (field-independent basis, Debye-Ang):
   XX=            -22.1638   YY=            -22.1638   ZZ=            -83.4556
   XY=             -0.0000   XZ=              0.0000   YZ=             -0.0000

 P4SDQ=-299.9911674\CCSD=-299.9788005\CCSD(T)=-300.031063\RMSD=5.708e-1
 Normal termination of Gaussian 16 at Mon Jan 16 04:37:33 2023.
