 Gaussian 16, Revision A.03,
 Gaussian 16:  ES64L-G16RevA.03 25-Dec-2016

 ---------------------------------------------------------------
 #p ROCCSD(T)/cc-pVTZ Guess=Read SCF=(VeryTight,CDIIS,VShift=10)
 ---------------------------------------------------------------

 ---------
 O2_O2_237
 ---------
 Symbolic Z-matrix:
 Charge = -1 Multiplicity = 6

                         Standard orientation:
 ---------------------------------------------------------------------
 Center     Atomic      Atomic             Coordinates (Angstroms)
 Number     Number       Type             X           Y           Z
 ---------------------------------------------------------------------
      1          8           0        0.000000    0.000000    2.470368
      2          8           0        0.000000    0.000000    3.822748
      3          8           0        0.000000    0.000000   -3.822748
      4          8           0        0.000000    0.000000   -2.470368
 ---------------------------------------------------------------------

 SCF Done:  E(ROHF) =  -298.983694619     A.U. after   11 cycles
 E2 =    -0.1077918125D+01 EUMP2 =    -0.30006161274430D+03
 CCSD(T)
 CCSD(T)= -0.30003175274D+03

 The electronic state is 6-SGG.
 Alpha  occ. eigenvalues --  -20.50492 -20.50491 -20.48351 -20.48351  -1.36645
 Alpha  occ. eigenvalues --   -1.36644  -1.00724  -1.00541  -0.52809  -0.52809
 Alpha  occ. eigenvalues --   -0.52808  -0.52808  -0.52073  -0.51806  -0.32885
 Alpha  occ. eigenvalues --   -0.32885  -0.32882  -0.32882   0.19223
 Alpha virt. eigenvalues --    0.28203   0.84671   0.86002   0.89749   0.89749
 Alpha virt. eigenvalues --    0.89777   0.89777   0.94082   0.95044   0.99036
 Alpha virt. eigenvalues --    0.99036   0.99111   0.99111   1.10099   1.10103

 Mulliken charges and spin densities:
               1          2
     1  O   -0.197632   1.311007
     2  O   -0.302368   1.188993
     3  O   -0.302368   1.188993
     4  O   -0.197632   1.311007
 Sum of Mulliken charges =  -1.00000   5.00000

 Dipole moment (field-independent basis, Debye):
    X=             -0.0000    Y=              0.0000    Z=              0.0000  Tot=              0.0000
 Quadrupole moment (field-independent basis, Debye-Ang):
   XX=            -22.1658   YY=            -22.1658   ZZ=            -79.4100
   XY=             -0.0000   XZ=              0.0000   YZ=             -0.0000

 P4SDQ=-299.9919312\CCSD=-299.9795022\CCSD(T)=-300.0317527\RMSD=9.785e-
 Normal termination of Gaussian 16 at Mon Jan 16 04:15:26 2023.
