 Gaussian 16, Revision A.03,
 Gaussian 16:  ES64L-G16RevA.03 25-Dec-2016

 ---------------------------------------------------------------
 #p ROCCSD(T)/cc-pVTZ Guess=Read SCF=(VeryTight,CDIIS,VShift=10)
 ---------------------------------------------------------------

 ---------
 O2_O2_123
 ---------
 Symbolic Z-matrix:
 Charge = -1 Multiplicity = 6

                         Standard orientation:
 ---------------------------------------------------------------------
 Center     Atomic      Atomic             Coordinates (Angstroms)
 Number     Number       Type             X           Y           Z
 ---------------------------------------------------------------------
      1          8           0        0.000000    0.000000    1.663329
      2          8           0        0.000000    0.000000    3.015709
      3          8           0        0.000000    0.000000   -3.015709
      4          8           0        0.000000    0.000000   -1.663329
 ---------------------------------------------------------------------

 SCF Done:  E(ROHF) =  -299.005110128     A.U. after   11 cycles
 E2 =    -0.1073685989D+01 EUMP2 =    -0.30007879611622D+03
 CCSD(T)
 CCSD(T)= -0.30005226850D+03

 The electronic state is 6-SGG.
 Alpha  occ. eigenvalues --  -20.51120 -20.51119 -20.46623 -20.46622  -1.35748
 Alpha  occ. eigenvalues --   -1.35716  -0.99644  -0.99268  -0.52122  -0.52122
 Alpha  occ. eigenvalues --   -0.52040  -0.52040  -0.50929  -0.49480  -0.31878
 Alpha  occ. eigenvalues --   -0.31878  -0.31751  -0.31751   0.17397
 Alpha virt. eigenvalues --    0.34689   0.78263   0.89844   0.89844   0.89905
 Alpha virt. eigenvalues --    0.91637   0.91637   0.92283   0.98648   0.98648
 Alpha virt. eigenvalues --    1.02655   1.02655   1.11048   1.11274   1.18944

 Mulliken charges and spin densities:
               1          2
     1  O   -0.162743   1.370552
     2  O   -0.337257   1.129448
     3  O   -0.337257   1.129448
     4  O   -0.162743   1.370552
 Sum of Mulliken charges =  -1.00000   5.00000

 Dipole moment (field-independent basis, Debye):
    X=             -0.0000    Y=             -0.0000    Z=              0.0000  Tot=              0.0000
 Quadrupole moment (field-independent basis, Debye-Ang):
   XX=            -22.1983   YY=            -22.1983   ZZ=            -57.8667
   XY=             -0.0000   XZ=              0.0000   YZ=             -0.0000

 1\MP4SDQ=-300.0140943\CCSD=-300.0001581\CCSD(T)=-300.0522685\RMSD=7.85
 Normal termination of Gaussian 16 at Sun Jan 15 04:28:27 2023.
