 Gaussian 16, Revision A.03,
 Gaussian 16:  ES64L-G16RevA.03 25-Dec-2016

 ---------------------------------------------------------------
 #p ROCCSD(T)/cc-pVTZ Guess=Read SCF=(VeryTight,CDIIS,VShift=10)
 ---------------------------------------------------------------

 --------
 O2_O2_49
 --------
 Symbolic Z-matrix:
 Charge = -1 Multiplicity = 6

                         Standard orientation:
 ---------------------------------------------------------------------
 Center     Atomic      Atomic             Coordinates (Angstroms)
 Number     Number       Type             X           Y           Z
 ---------------------------------------------------------------------
      1          8           0        0.000000    0.000000    1.139461
      2          8           0        0.000000    0.000000    2.491841
      3          8           0        0.000000    0.000000   -2.491841
      4          8           0        0.000000    0.000000   -1.139461
 ---------------------------------------------------------------------

 SCF Done:  E(ROHF) =  -299.002935353     A.U. after   14 cycles
 E2 =    -0.1078861720D+01 EUMP2 =    -0.30008179707324D+03
 CCSD(T)
 CCSD(T)= -0.30005417095D+03

 The electronic state is 6-SGG.
 Alpha  occ. eigenvalues --  -20.47368 -20.47364 -20.44126 -20.44125  -1.33598
 Alpha  occ. eigenvalues --   -1.33028  -0.98791  -0.95972  -0.51790  -0.49815
 Alpha  occ. eigenvalues --   -0.49815  -0.48884  -0.48884  -0.44706  -0.30060
 Alpha  occ. eigenvalues --   -0.30060  -0.28688  -0.28688   0.15847
 Alpha virt. eigenvalues --    0.40946   0.87962   0.89163   0.89163   0.91156
 Alpha virt. eigenvalues --    0.94370   0.94370   0.98075   0.98075   1.03389
 Alpha virt. eigenvalues --    1.12341   1.12633   1.12633   1.13428   1.56606

 Mulliken charges and spin densities:
               1          2
     1  O   -0.150958   1.299766
     2  O   -0.349042   1.200234
     3  O   -0.349042   1.200234
     4  O   -0.150958   1.299766
 Sum of Mulliken charges =  -1.00000   5.00000

 Dipole moment (field-independent basis, Debye):
    X=             -0.0000    Y=              0.0000    Z=              0.0000  Tot=              0.0000
 Quadrupole moment (field-independent basis, Debye-Ang):
   XX=            -22.1950   YY=            -22.1950   ZZ=            -47.8397
   XY=             -0.0000   XZ=              0.0000   YZ=             -0.0000

 1\MP4SDQ=-300.0150077\CCSD=-300.0011091\CCSD(T)=-300.0541709\RMSD=6.09
 Normal termination of Gaussian 16 at Sun Jan 15 01:15:16 2023.
