 Gaussian 16, Revision A.03,
 Gaussian 16:  ES64L-G16RevA.03 25-Dec-2016

 ---------------------------------------------------------------
 #p ROCCSD(T)/cc-pVTZ Guess=Read SCF=(VeryTight,CDIIS,VShift=10)
 ---------------------------------------------------------------

 ---------
 O2_O2_113
 ---------
 Symbolic Z-matrix:
 Charge = -1 Multiplicity = 6

                         Standard orientation:
 ---------------------------------------------------------------------
 Center     Atomic      Atomic             Coordinates (Angstroms)
 Number     Number       Type             X           Y           Z
 ---------------------------------------------------------------------
      1          8           0        0.000000    0.000000    1.592536
      2          8           0        0.000000    0.000000    2.944916
      3          8           0        0.000000    0.000000   -2.944916
      4          8           0        0.000000    0.000000   -1.592536
 ---------------------------------------------------------------------

 SCF Done:  E(ROHF) =  -299.006864390     A.U. after   14 cycles
 E2 =    -0.1073548204D+01 EUMP2 =    -0.30008041259471D+03
 CCSD(T)
 CCSD(T)= -0.30005417641D+03

 The electronic state is 6-SGG.
 Alpha  occ. eigenvalues --  -20.50998 -20.50996 -20.46285 -20.46284  -1.35549
 Alpha  occ. eigenvalues --   -1.35501  -0.99460  -0.99001  -0.51933  -0.51933
 Alpha  occ. eigenvalues --   -0.51818  -0.51818  -0.50846  -0.49082  -0.31661
 Alpha  occ. eigenvalues --   -0.31661  -0.31488  -0.31488   0.17163
 Alpha virt. eigenvalues --    0.35443   0.79133   0.89685   0.89685   0.89822
 Alpha virt. eigenvalues --    0.91999   0.91999   0.92274   0.98465   0.98465
 Alpha virt. eigenvalues --    1.03556   1.03556   1.11203   1.11487   1.24101

 Mulliken charges and spin densities:
               1          2
     1  O   -0.158307   1.374615
     2  O   -0.341693   1.125385
     3  O   -0.341693   1.125385
     4  O   -0.158307   1.374615
 Sum of Mulliken charges =  -1.00000   5.00000

 Dipole moment (field-independent basis, Debye):
    X=             -0.0000    Y=              0.0000    Z=              0.0000  Tot=              0.0000
 Quadrupole moment (field-independent basis, Debye-Ang):
   XX=            -22.1983   YY=            -22.1983   ZZ=            -56.3599
   XY=             -0.0000   XZ=              0.0000   YZ=             -0.0000

 26\MP4SDQ=-300.0160471\CCSD=-300.0020117\CCSD(T)=-300.0541764\RMSD=8.0
 Normal termination of Gaussian 16 at Sun Jan 15 04:03:57 2023.
