 Gaussian 16, Revision A.03,
 Gaussian 16:  ES64L-G16RevA.03 25-Dec-2016

 ---------------------------------------------------------------
 #p ROCCSD(T)/cc-pVTZ Guess=Read SCF=(VeryTight,CDIIS,VShift=10)
 ---------------------------------------------------------------

 --------
 O2_O2_12
 --------
 Symbolic Z-matrix:
 Charge = -1 Multiplicity = 6

                         Standard orientation:
 ---------------------------------------------------------------------
 Center     Atomic      Atomic             Coordinates (Angstroms)
 Number     Number       Type             X           Y           Z
 ---------------------------------------------------------------------
      1          8           0        0.000000    0.000000    0.877527
      2          8           0        0.000000    0.000000    2.229907
      3          8           0        0.000000    0.000000   -2.229907
      4          8           0        0.000000    0.000000   -0.877527
 ---------------------------------------------------------------------

 SCF Done:  E(ROHF) =  -298.952779187     A.U. after   12 cycles
 E2 =    -0.1074177794D+01 EUMP2 =    -0.30002695698079D+03
 CCSD(T)
 CCSD(T)= -0.30000881093D+03

 The electronic state is 6-SGG.
 Alpha  occ. eigenvalues --  -20.43615 -20.43614 -20.41265 -20.41256  -1.32564
 Alpha  occ. eigenvalues --   -1.30402  -1.01390  -0.91492  -0.54830  -0.48629
 Alpha  occ. eigenvalues --   -0.48629  -0.46301  -0.46301  -0.37622  -0.29837
 Alpha  occ. eigenvalues --   -0.29837  -0.24267  -0.24267   0.14125
 Alpha virt. eigenvalues --    0.50634   0.85758   0.88656   0.92869   0.92869
 Alpha virt. eigenvalues --    0.95020   0.95020   1.00098   1.00098   1.12625
 Alpha virt. eigenvalues --    1.12672   1.18916   1.18916   1.25690   1.65886

 Mulliken charges and spin densities:
               1          2
     1  O   -0.208788   1.098080
     2  O   -0.291212   1.401920
     3  O   -0.291212   1.401920
     4  O   -0.208788   1.098080
 Sum of Mulliken charges =  -1.00000   5.00000

 Dipole moment (field-independent basis, Debye):
    X=             -0.0000    Y=              0.0000    Z=              0.0000  Tot=              0.0000
 Quadrupole moment (field-independent basis, Debye-Ang):
   XX=            -22.1095   YY=            -22.1095   ZZ=            -41.7907
   XY=             -0.0000   XZ=              0.0000   YZ=             -0.0000

 MP4SDQ=-299.9670661\CCSD=-299.9546043\CCSD(T)=-300.0088109\RMSD=1.554e
 Normal termination of Gaussian 16 at Sat Jan 14 23:38:25 2023.
