 Gaussian 16, Revision A.03,
 Gaussian 16:  ES64L-G16RevA.03 25-Dec-2016

 ---------------------------------------------------------------
 #p ROCCSD(T)/cc-pVTZ Guess=Read SCF=(VeryTight,CDIIS,VShift=10)
 ---------------------------------------------------------------

 ---------
 O2_O2_118
 ---------
 Symbolic Z-matrix:
 Charge = -1 Multiplicity = 6

                         Standard orientation:
 ---------------------------------------------------------------------
 Center     Atomic      Atomic             Coordinates (Angstroms)
 Number     Number       Type             X           Y           Z
 ---------------------------------------------------------------------
      1          8           0        0.000000    0.000000    1.627932
      2          8           0        0.000000    0.000000    2.980312
      3          8           0        0.000000    0.000000   -2.980312
      4          8           0        0.000000    0.000000   -1.627932
 ---------------------------------------------------------------------

 SCF Done:  E(ROHF) =  -299.006057132     A.U. after   14 cycles
 E2 =    -0.1073588510D+01 EUMP2 =    -0.30007964564245D+03
 CCSD(T)
 CCSD(T)= -0.30005327787D+03

 The electronic state is 6-SGG.
 Alpha  occ. eigenvalues --  -20.51074 -20.51072 -20.46459 -20.46458  -1.35654
 Alpha  occ. eigenvalues --   -1.35615  -0.99555  -0.99141  -0.52035  -0.52035
 Alpha  occ. eigenvalues --   -0.51938  -0.51938  -0.50884  -0.49287  -0.31774
 Alpha  occ. eigenvalues --   -0.31774  -0.31626  -0.31626   0.17278
 Alpha virt. eigenvalues --    0.35070   0.78610   0.89770   0.89770   0.89873
 Alpha virt. eigenvalues --    0.91813   0.91813   0.92276   0.98556   0.98556
 Alpha virt. eigenvalues --    1.03085   1.03085   1.11123   1.11376   1.21471

 Mulliken charges and spin densities:
               1          2
     1  O   -0.160482   1.372982
     2  O   -0.339518   1.127018
     3  O   -0.339518   1.127018
     4  O   -0.160482   1.372982
 Sum of Mulliken charges =  -1.00000   5.00000

 Dipole moment (field-independent basis, Debye):
    X=             -0.0000    Y=             -0.0000    Z=              0.0000  Tot=              0.0000
 Quadrupole moment (field-independent basis, Debye-Ang):
   XX=            -22.1985   YY=            -22.1985   ZZ=            -57.1016
   XY=             -0.0000   XZ=              0.0000   YZ=             -0.0000

 56\MP4SDQ=-300.0151353\CCSD=-300.0011433\CCSD(T)=-300.0532779\RMSD=3.5
 Normal termination of Gaussian 16 at Sun Jan 15 04:16:03 2023.
