 Gaussian 16, Revision A.03,
 Gaussian 16:  ES64L-G16RevA.03 25-Dec-2016

 ---------------------------------------------------------------
 #p ROCCSD(T)/cc-pVTZ Guess=Read SCF=(VeryTight,CDIIS,VShift=10)
 ---------------------------------------------------------------

 ---------
 O2_O2_160
 ---------
 Symbolic Z-matrix:
 Charge = -1 Multiplicity = 6

                         Standard orientation:
 ---------------------------------------------------------------------
 Center     Atomic      Atomic             Coordinates (Angstroms)
 Number     Number       Type             X           Y           Z
 ---------------------------------------------------------------------
      1          8           0        0.000000    0.000000    1.925262
      2          8           0        0.000000    0.000000    3.277642
      3          8           0        0.000000    0.000000   -3.277642
      4          8           0        0.000000    0.000000   -1.925262
 ---------------------------------------------------------------------

 SCF Done:  E(ROHF) =  -298.995501044     A.U. after   11 cycles
 E2 =    -0.1075312496D+01 EUMP2 =    -0.30007081354059D+03
 CCSD(T)
 CCSD(T)= -0.30004284284D+03

 The electronic state is 6-SGG.
 Alpha  occ. eigenvalues --  -20.50863 -20.50862 -20.47465 -20.47465  -1.36142
 Alpha  occ. eigenvalues --   -1.36133  -1.00104  -0.99871  -0.52420  -0.52420
 Alpha  occ. eigenvalues --   -0.52397  -0.52397  -0.51328  -0.50586  -0.32340
 Alpha  occ. eigenvalues --   -0.32340  -0.32300  -0.32300   0.18308
 Alpha virt. eigenvalues --    0.31837   0.79731   0.89525   0.90107   0.90107
 Alpha virt. eigenvalues --    0.90685   0.90685   0.92680   0.99183   0.99183
 Alpha virt. eigenvalues --    1.00555   1.00555   1.04298   1.10696   1.10757

 Mulliken charges and spin densities:
               1          2
     1  O   -0.178516   1.342523
     2  O   -0.321484   1.157477
     3  O   -0.321484   1.157477
     4  O   -0.178516   1.342523
 Sum of Mulliken charges =  -1.00000   5.00000

 Dipole moment (field-independent basis, Debye):
    X=             -0.0000    Y=              0.0000    Z=             -0.0000  Tot=              0.0000
 Quadrupole moment (field-independent basis, Debye-Ang):
   XX=            -22.1887   YY=            -22.1887   ZZ=            -64.2230
   XY=             -0.0000   XZ=              0.0000   YZ=             -0.0000

 \MP4SDQ=-300.0040317\CCSD=-299.9907518\CCSD(T)=-300.0428428\RMSD=6.526
 Normal termination of Gaussian 16 at Sun Jan 15 06:07:50 2023.
