 Gaussian 16, Revision A.03,
 Gaussian 16:  ES64L-G16RevA.03 25-Dec-2016

 ---------------------------------------------------------------
 #p ROCCSD(T)/cc-pVTZ Guess=Read SCF=(VeryTight,CDIIS,VShift=10)
 ---------------------------------------------------------------

 ---------
 O2_O2_284
 ---------
 Symbolic Z-matrix:
 Charge = -1 Multiplicity = 6

                         Standard orientation:
 ---------------------------------------------------------------------
 Center     Atomic      Atomic             Coordinates (Angstroms)
 Number     Number       Type             X           Y           Z
 ---------------------------------------------------------------------
      1          8           0        0.000000    0.000000    2.803094
      2          8           0        0.000000    0.000000    4.155474
      3          8           0        0.000000    0.000000   -4.155474
      4          8           0        0.000000    0.000000   -2.803094
 ---------------------------------------------------------------------

 SCF Done:  E(ROHF) =  -298.982467591     A.U. after   13 cycles
 E2 =    -0.1078721516D+01 EUMP2 =    -0.30006118910749D+03
 CCSD(T)
 CCSD(T)= -0.30003058360D+03

 The electronic state is 6-SGG.
 Alpha  occ. eigenvalues --  -20.50655 -20.50655 -20.48896 -20.48896  -1.37013
 Alpha  occ. eigenvalues --   -1.37012  -1.01117  -1.00938  -0.53158  -0.53158
 Alpha  occ. eigenvalues --   -0.53158  -0.53158  -0.52458  -0.52277  -0.33277
 Alpha  occ. eigenvalues --   -0.33277  -0.33277  -0.33277   0.19323
 Alpha virt. eigenvalues --    0.27143   0.84772   0.84966   0.89383   0.89383
 Alpha virt. eigenvalues --    0.89387   0.89387   0.93957   0.94218   0.98661
 Alpha virt. eigenvalues --    0.98661   0.98678   0.98678   1.09724   1.09726

 Mulliken charges and spin densities:
               1          2
     1  O   -0.206440   1.300681
     2  O   -0.293560   1.199319
     3  O   -0.293560   1.199319
     4  O   -0.206440   1.300681
 Sum of Mulliken charges =  -1.00000   5.00000

 Dipole moment (field-independent basis, Debye):
    X=             -0.0000    Y=              0.0000    Z=              0.0000  Tot=              0.0000
 Quadrupole moment (field-independent basis, Debye-Ang):
   XX=            -22.1621   YY=            -22.1621   ZZ=            -89.7040
   XY=             -0.0000   XZ=              0.0000   YZ=             -0.0000

 4SDQ=-299.9906271\CCSD=-299.9783135\CCSD(T)=-300.0305836\RMSD=9.585e-0
 Normal termination of Gaussian 16 at Mon Jan 16 05:11:41 2023.
