 Gaussian 16, Revision A.03,
 Gaussian 16:  ES64L-G16RevA.03 25-Dec-2016

 ---------------------------------------------------------------
 #p ROCCSD(T)/cc-pVTZ Guess=Read SCF=(VeryTight,CDIIS,VShift=10)
 ---------------------------------------------------------------

 --------
 O2_O2_29
 --------
 Symbolic Z-matrix:
 Charge = -1 Multiplicity = 6

                         Standard orientation:
 ---------------------------------------------------------------------
 Center     Atomic      Atomic             Coordinates (Angstroms)
 Number     Number       Type             X           Y           Z
 ---------------------------------------------------------------------
      1          8           0        0.000000    0.000000    0.997875
      2          8           0        0.000000    0.000000    2.350255
      3          8           0        0.000000    0.000000   -2.350255
      4          8           0        0.000000    0.000000   -0.997875
 ---------------------------------------------------------------------

 SCF Done:  E(ROHF) =  -298.987106915     A.U. after   11 cycles
 E2 =    -0.1080769631D+01 EUMP2 =    -0.30006787654631D+03
 CCSD(T)
 CCSD(T)= -0.30004110383D+03

 The electronic state is 6-SGG.
 Alpha  occ. eigenvalues --  -20.44721 -20.44716 -20.43800 -20.43800  -1.32957
 Alpha  occ. eigenvalues --   -1.31760  -0.99579  -0.94061  -0.53120  -0.49073
 Alpha  occ. eigenvalues --   -0.49073  -0.47462  -0.47462  -0.41699  -0.29818
 Alpha  occ. eigenvalues --   -0.29818  -0.26962  -0.26962   0.15181
 Alpha virt. eigenvalues --    0.44704   0.86898   0.89944   0.90835   0.90835
 Alpha virt. eigenvalues --    0.94817   0.94817   0.98599   0.98599   1.12048
 Alpha virt. eigenvalues --    1.12588   1.15984   1.15984   1.17722   1.63675

 Mulliken charges and spin densities:
               1          2
     1  O   -0.170786   1.216657
     2  O   -0.329214   1.283343
     3  O   -0.329214   1.283343
     4  O   -0.170786   1.216657
 Sum of Mulliken charges =  -1.00000   5.00000

 Dipole moment (field-independent basis, Debye):
    X=             -0.0000    Y=             -0.0000    Z=              0.0000  Tot=              0.0000
 Quadrupole moment (field-independent basis, Debye-Ang):
   XX=            -22.1720   YY=            -22.1720   ZZ=            -44.7851
   XY=             -0.0000   XZ=              0.0000   YZ=             -0.0000

 P4SDQ=-300.0011019\CCSD=-299.9874745\CCSD(T)=-300.0411038\RMSD=7.717e-
 Normal termination of Gaussian 16 at Sun Jan 15 00:23:19 2023.
