 Gaussian 16, Revision A.03,
 Gaussian 16:  ES64L-G16RevA.03 25-Dec-2016

 ---------------------------------------------------------------
 #p ROCCSD(T)/cc-pVTZ Guess=Read SCF=(VeryTight,CDIIS,VShift=10)
 ---------------------------------------------------------------

 ---------
 O2_O2_253
 ---------
 Symbolic Z-matrix:
 Charge = -1 Multiplicity = 6

                         Standard orientation:
 ---------------------------------------------------------------------
 Center     Atomic      Atomic             Coordinates (Angstroms)
 Number     Number       Type             X           Y           Z
 ---------------------------------------------------------------------
      1          8           0        0.000000    0.000000    2.583636
      2          8           0        0.000000    0.000000    3.936016
      3          8           0        0.000000    0.000000   -3.936016
      4          8           0        0.000000    0.000000   -2.583636
 ---------------------------------------------------------------------

 SCF Done:  E(ROHF) =  -298.983051750     A.U. after   15 cycles
 E2 =    -0.1078230921D+01 EUMP2 =    -0.30006128267115D+03
 CCSD(T)
 CCSD(T)= -0.30003114599D+03

 The electronic state is 6-SGG.
 Alpha  occ. eigenvalues --  -20.50536 -20.50536 -20.48540 -20.48540  -1.36771
 Alpha  occ. eigenvalues --   -1.36770  -1.00861  -1.00680  -0.52927  -0.52927
 Alpha  occ. eigenvalues --   -0.52927  -0.52927  -0.52210  -0.51980  -0.33020
 Alpha  occ. eigenvalues --   -0.33020  -0.33019  -0.33019   0.19274
 Alpha virt. eigenvalues --    0.27789   0.84813   0.85532   0.89623   0.89623
 Alpha virt. eigenvalues --    0.89637   0.89637   0.94095   0.94670   0.98909
 Alpha virt. eigenvalues --    0.98909   0.98951   0.98951   1.09968   1.09971

 Mulliken charges and spin densities:
               1          2
     1  O   -0.200809   1.307212
     2  O   -0.299191   1.192788
     3  O   -0.299191   1.192788
     4  O   -0.200809   1.307212
 Sum of Mulliken charges =  -1.00000   5.00000

 Dipole moment (field-independent basis, Debye):
    X=             -0.0000    Y=              0.0000    Z=             -0.0000  Tot=              0.0000
 Quadrupole moment (field-independent basis, Debye-Ang):
   XX=            -22.1641   YY=            -22.1641   ZZ=            -82.8069
   XY=             -0.0000   XZ=              0.0000   YZ=             -0.0000

 4SDQ=-299.9912597\CCSD=-299.9788849\CCSD(T)=-300.031146\RMSD=1.867e-10
 Normal termination of Gaussian 16 at Mon Jan 16 04:34:05 2023.
