 Gaussian 16, Revision A.03,
 Gaussian 16:  ES64L-G16RevA.03 25-Dec-2016

 ---------------------------------------------------------------
 #p ROCCSD(T)/cc-pVTZ Guess=Read SCF=(VeryTight,CDIIS,VShift=10)
 ---------------------------------------------------------------

 ---------
 O2_O2_102
 ---------
 Symbolic Z-matrix:
 Charge = -1 Multiplicity = 6

                         Standard orientation:
 ---------------------------------------------------------------------
 Center     Atomic      Atomic             Coordinates (Angstroms)
 Number     Number       Type             X           Y           Z
 ---------------------------------------------------------------------
      1          8           0        0.000000    0.000000    1.514663
      2          8           0        0.000000    0.000000    2.867043
      3          8           0        0.000000    0.000000   -2.867043
      4          8           0        0.000000    0.000000   -1.514663
 ---------------------------------------------------------------------

 SCF Done:  E(ROHF) =  -299.008133136     A.U. after   14 cycles
 E2 =    -0.1073687551D+01 EUMP2 =    -0.30008182068645D+03
 CCSD(T)
 CCSD(T)= -0.30005575038D+03

 The electronic state is 6-SGG.
 Alpha  occ. eigenvalues --  -20.50721 -20.50720 -20.45880 -20.45880  -1.35277
 Alpha  occ. eigenvalues --   -1.35205  -0.99241  -0.98648  -0.51660  -0.51660
 Alpha  occ. eigenvalues --   -0.51493  -0.51493  -0.50791  -0.48587  -0.31382
 Alpha  occ. eigenvalues --   -0.31382  -0.31140  -0.31140   0.16928
 Alpha virt. eigenvalues --    0.36235   0.80941   0.89463   0.89463   0.89643
 Alpha virt. eigenvalues --    0.92273   0.92433   0.92433   0.98274   0.98274
 Alpha virt. eigenvalues --    1.04742   1.04742   1.11397   1.11757   1.30157

 Mulliken charges and spin densities:
               1          2
     1  O   -0.153991   1.374902
     2  O   -0.346009   1.125098
     3  O   -0.346009   1.125098
     4  O   -0.153991   1.374902
 Sum of Mulliken charges =  -1.00000   5.00000

 Dipole moment (field-independent basis, Debye):
    X=             -0.0000    Y=              0.0000    Z=              0.0000  Tot=              0.0000
 Quadrupole moment (field-independent basis, Debye-Ang):
   XX=            -22.1975   YY=            -22.1975   ZZ=            -54.8033
   XY=             -0.0000   XZ=              0.0000   YZ=             -0.0000

 7\MP4SDQ=-300.0175857\CCSD=-300.0034986\CCSD(T)=-300.0557504\RMSD=2.81
 Normal termination of Gaussian 16 at Sun Jan 15 03:33:59 2023.
