 Gaussian 16, Revision A.03,
 Gaussian 16:  ES64L-G16RevA.03 25-Dec-2016

 ---------------------------------------------------------------
 #p ROCCSD(T)/cc-pVTZ Guess=Read SCF=(VeryTight,CDIIS,VShift=10)
 ---------------------------------------------------------------

 --------
 O2_O2_95
 --------
 Symbolic Z-matrix:
 Charge = -1 Multiplicity = 6

                         Standard orientation:
 ---------------------------------------------------------------------
 Center     Atomic      Atomic             Coordinates (Angstroms)
 Number     Number       Type             X           Y           Z
 ---------------------------------------------------------------------
      1          8           0        0.000000    0.000000    1.465108
      2          8           0        0.000000    0.000000    2.817488
      3          8           0        0.000000    0.000000   -2.817488
      4          8           0        0.000000    0.000000   -1.465108
 ---------------------------------------------------------------------

 SCF Done:  E(ROHF) =  -299.008586908     A.U. after   14 cycles
 E2 =    -0.1073948329D+01 EUMP2 =    -0.30008253523673D+03
 CCSD(T)
 CCSD(T)= -0.30005647156D+03

 The electronic state is 6-SGG.
 Alpha  occ. eigenvalues --  -20.50469 -20.50467 -20.45615 -20.45614  -1.35081
 Alpha  occ. eigenvalues --   -1.34986  -0.99102  -0.98394  -0.51455  -0.51455
 Alpha  occ. eigenvalues --   -0.51243  -0.51243  -0.50786  -0.48237  -0.31191
 Alpha  occ. eigenvalues --   -0.31191  -0.30890  -0.30890   0.16789
 Alpha virt. eigenvalues --    0.36729   0.82591   0.89302   0.89302   0.89486
 Alpha virt. eigenvalues --    0.92260   0.92718   0.92718   0.98169   0.98169
 Alpha virt. eigenvalues --    1.05600   1.05600   1.11528   1.11946   1.34111

 Mulliken charges and spin densities:
               1          2
     1  O   -0.151676   1.372499
     2  O   -0.348324   1.127501
     3  O   -0.348324   1.127501
     4  O   -0.151676   1.372499
 Sum of Mulliken charges =  -1.00000   5.00000

 Dipole moment (field-independent basis, Debye):
    X=             -0.0000    Y=              0.0000    Z=             -0.0000  Tot=              0.0000
 Quadrupole moment (field-independent basis, Debye-Ang):
   XX=            -22.1969   YY=            -22.1969   ZZ=            -53.8575
   XY=             -0.0000   XZ=              0.0000   YZ=             -0.0000

 2\MP4SDQ=-300.0182421\CCSD=-300.0041504\CCSD(T)=-300.0564716\RMSD=3.96
 Normal termination of Gaussian 16 at Sun Jan 15 03:16:22 2023.
