 Gaussian 16, Revision A.03,
 Gaussian 16:  ES64L-G16RevA.03 25-Dec-2016

 ---------------------------------------------------------------
 #p ROCCSD(T)/cc-pVTZ Guess=Read SCF=(VeryTight,CDIIS,VShift=10)
 ---------------------------------------------------------------

 ---------
 O2_O2_276
 ---------
 Symbolic Z-matrix:
 Charge = -1 Multiplicity = 6

                         Standard orientation:
 ---------------------------------------------------------------------
 Center     Atomic      Atomic             Coordinates (Angstroms)
 Number     Number       Type             X           Y           Z
 ---------------------------------------------------------------------
      1          8           0        0.000000    0.000000    2.746460
      2          8           0        0.000000    0.000000    4.098840
      3          8           0        0.000000    0.000000   -4.098840
      4          8           0        0.000000    0.000000   -2.746460
 ---------------------------------------------------------------------

 SCF Done:  E(ROHF) =  -298.982564236     A.U. after    9 cycles
 E2 =    -0.1078606349D+01 EUMP2 =    -0.30006117058484D+03
 CCSD(T)
 CCSD(T)= -0.30003067836D+03

 The electronic state is 6-SGG.
 Alpha  occ. eigenvalues --  -20.50623 -20.50622 -20.48806 -20.48806  -1.36952
 Alpha  occ. eigenvalues --   -1.36951  -1.01053  -1.00873  -0.53099  -0.53099
 Alpha  occ. eigenvalues --   -0.53099  -0.53099  -0.52396  -0.52205  -0.33212
 Alpha  occ. eigenvalues --   -0.33212  -0.33212  -0.33212   0.19314
 Alpha virt. eigenvalues --    0.27295   0.84806   0.85081   0.89444   0.89444
 Alpha virt. eigenvalues --    0.89449   0.89449   0.94004   0.94314   0.98724
 Alpha virt. eigenvalues --    0.98724   0.98745   0.98745   1.09785   1.09787

 Mulliken charges and spin densities:
               1          2
     1  O   -0.205055   1.302278
     2  O   -0.294945   1.197722
     3  O   -0.294945   1.197722
     4  O   -0.205055   1.302278
 Sum of Mulliken charges =  -1.00000   5.00000

 Dipole moment (field-independent basis, Debye):
    X=             -0.0000    Y=              0.0000    Z=              0.0000  Tot=              0.0000
 Quadrupole moment (field-independent basis, Debye-Ang):
   XX=            -22.1625   YY=            -22.1625   ZZ=            -87.8821
   XY=             -0.0000   XZ=              0.0000   YZ=             -0.0000

 SDQ=-299.9907354\CCSD=-299.9784097\CCSD(T)=-300.0306784\RMSD=3.956e-09
 Normal termination of Gaussian 16 at Mon Jan 16 05:01:43 2023.
