 Gaussian 16, Revision A.03,
 Gaussian 16:  ES64L-G16RevA.03 25-Dec-2016

 ---------------------------------------------------------------
 #p ROCCSD(T)/cc-pVTZ Guess=Read SCF=(VeryTight,CDIIS,VShift=10)
 ---------------------------------------------------------------

 ---------
 O2_O2_156
 ---------
 Symbolic Z-matrix:
 Charge = -1 Multiplicity = 6

                         Standard orientation:
 ---------------------------------------------------------------------
 Center     Atomic      Atomic             Coordinates (Angstroms)
 Number     Number       Type             X           Y           Z
 ---------------------------------------------------------------------
      1          8           0        0.000000    0.000000    1.896945
      2          8           0        0.000000    0.000000    3.249325
      3          8           0        0.000000    0.000000   -3.249325
      4          8           0        0.000000    0.000000   -1.896945
 ---------------------------------------------------------------------

 SCF Done:  E(ROHF) =  -298.996596453     A.U. after   13 cycles
 E2 =    -0.1075115146D+01 EUMP2 =    -0.30007171159896D+03
 CCSD(T)
 CCSD(T)= -0.30004388646D+03

 The electronic state is 6-SGG.
 Alpha  occ. eigenvalues --  -20.50915 -20.50914 -20.47404 -20.47403  -1.36116
 Alpha  occ. eigenvalues --   -1.36107  -1.00068  -0.99827  -0.52406  -0.52406
 Alpha  occ. eigenvalues --   -0.52380  -0.52380  -0.51284  -0.50490  -0.32310
 Alpha  occ. eigenvalues --   -0.32310  -0.32264  -0.32264   0.18217
 Alpha virt. eigenvalues --    0.32127   0.79350   0.89624   0.90099   0.90099
 Alpha virt. eigenvalues --    0.90760   0.90760   0.92603   0.99146   0.99146
 Alpha virt. eigenvalues --    1.00707   1.00707   1.05497   1.10728   1.10798

 Mulliken charges and spin densities:
               1          2
     1  O   -0.177074   1.345485
     2  O   -0.322926   1.154515
     3  O   -0.322926   1.154515
     4  O   -0.177074   1.345485
 Sum of Mulliken charges =  -1.00000   5.00000

 Dipole moment (field-independent basis, Debye):
    X=             -0.0000    Y=              0.0000    Z=              0.0000  Tot=              0.0000
 Quadrupole moment (field-independent basis, Debye-Ang):
   XX=            -22.1903   YY=            -22.1903   ZZ=            -63.4874
   XY=             -0.0000   XZ=              0.0000   YZ=             -0.0000

 \MP4SDQ=-300.0051607\CCSD=-299.9918034\CCSD(T)=-300.0438865\RMSD=6.756
 Normal termination of Gaussian 16 at Sun Jan 15 05:54:10 2023.
