 Gaussian 16, Revision A.03,
 Gaussian 16:  ES64L-G16RevA.03 25-Dec-2016

 ---------------------------------------------------------------
 #p ROCCSD(T)/cc-pVTZ Guess=Read SCF=(VeryTight,CDIIS,VShift=10)
 ---------------------------------------------------------------

 ---------
 O2_O2_244
 ---------
 Symbolic Z-matrix:
 Charge = -1 Multiplicity = 6

                         Standard orientation:
 ---------------------------------------------------------------------
 Center     Atomic      Atomic             Coordinates (Angstroms)
 Number     Number       Type             X           Y           Z
 ---------------------------------------------------------------------
      1          8           0        0.000000    0.000000    2.519923
      2          8           0        0.000000    0.000000    3.872303
      3          8           0        0.000000    0.000000   -3.872303
      4          8           0        0.000000    0.000000   -2.519923
 ---------------------------------------------------------------------

 SCF Done:  E(ROHF) =  -298.983372324     A.U. after    9 cycles
 E2 =    -0.1078060968D+01 EUMP2 =    -0.30006143329227D+03
 CCSD(T)
 CCSD(T)= -0.30003144931D+03

 The electronic state is 6-SGG.
 Alpha  occ. eigenvalues --  -20.50509 -20.50508 -20.48434 -20.48433  -1.36700
 Alpha  occ. eigenvalues --   -1.36699  -1.00784  -1.00602  -0.52860  -0.52860
 Alpha  occ. eigenvalues --   -0.52859  -0.52859  -0.52134  -0.51884  -0.32944
 Alpha  occ. eigenvalues --   -0.32944  -0.32942  -0.32942   0.19248
 Alpha virt. eigenvalues --    0.28013   0.84754   0.85776   0.89694   0.89694
 Alpha virt. eigenvalues --    0.89715   0.89715   0.94098   0.94862   0.98981
 Alpha virt. eigenvalues --    0.98981   0.99039   0.99039   1.10041   1.10045

 Mulliken charges and spin densities:
               1          2
     1  O   -0.199040   1.309309
     2  O   -0.300960   1.190691
     3  O   -0.300960   1.190691
     4  O   -0.199040   1.309309
 Sum of Mulliken charges =  -1.00000   5.00000

 Dipole moment (field-independent basis, Debye):
    X=             -0.0000    Y=              0.0000    Z=             -0.0000  Tot=              0.0000
 Quadrupole moment (field-independent basis, Debye-Ang):
   XX=            -22.1650   YY=            -22.1650   ZZ=            -80.8837
   XY=             -0.0000   XZ=              0.0000   YZ=             -0.0000

 P4SDQ=-299.991596\CCSD=-299.9791934\CCSD(T)=-300.0314493\RMSD=8.970e-0
 Normal termination of Gaussian 16 at Mon Jan 16 04:23:35 2023.
