 Gaussian 16, Revision A.03,
 Gaussian 16:  ES64L-G16RevA.03 25-Dec-2016

 ---------------------------------------------------------------
 #p ROCCSD(T)/cc-pVTZ Guess=Read SCF=(VeryTight,CDIIS,VShift=10)
 ---------------------------------------------------------------

 --------
 O2_O2_90
 --------
 Symbolic Z-matrix:
 Charge = -1 Multiplicity = 6

                         Standard orientation:
 ---------------------------------------------------------------------
 Center     Atomic      Atomic             Coordinates (Angstroms)
 Number     Number       Type             X           Y           Z
 ---------------------------------------------------------------------
      1          8           0        0.000000    0.000000    1.429712
      2          8           0        0.000000    0.000000    2.782092
      3          8           0        0.000000    0.000000   -2.782092
      4          8           0        0.000000    0.000000   -1.429712
 ---------------------------------------------------------------------

 SCF Done:  E(ROHF) =  -299.008750577     A.U. after   14 cycles
 E2 =    -0.1074216397D+01 EUMP2 =    -0.30008296697426D+03
 CCSD(T)
 CCSD(T)= -0.30005685973D+03

 The electronic state is 6-SGG.
 Alpha  occ. eigenvalues --  -20.50254 -20.50252 -20.45426 -20.45425  -1.34932
 Alpha  occ. eigenvalues --   -1.34817  -0.99007  -0.98197  -0.51297  -0.51297
 Alpha  occ. eigenvalues --   -0.51046  -0.51046  -0.50800  -0.47968  -0.31052
 Alpha  occ. eigenvalues --   -0.31052  -0.30699  -0.30699   0.16693
 Alpha virt. eigenvalues --    0.37084   0.84016   0.89184   0.89184   0.89356
 Alpha virt. eigenvalues --    0.92239   0.92922   0.92922   0.98104   0.98104
 Alpha virt. eigenvalues --    1.06260   1.06260   1.11623   1.12085   1.36928

 Mulliken charges and spin densities:
               1          2
     1  O   -0.150266   1.369511
     2  O   -0.349734   1.130489
     3  O   -0.349734   1.130489
     4  O   -0.150266   1.369511
 Sum of Mulliken charges =  -1.00000   5.00000

 Dipole moment (field-independent basis, Debye):
    X=             -0.0000    Y=              0.0000    Z=              0.0000  Tot=              0.0000
 Quadrupole moment (field-independent basis, Debye-Ang):
   XX=            -22.1966   YY=            -22.1966   ZZ=            -53.1980
   XY=             -0.0000   XZ=              0.0000   YZ=             -0.0000

 MP4SDQ=-300.0185667\CCSD=-300.0044826\CCSD(T)=-300.0568597\RMSD=3.593e
 Normal termination of Gaussian 16 at Sun Jan 15 03:03:47 2023.
