 Gaussian 16, Revision A.03,
 Gaussian 16:  ES64L-G16RevA.03 25-Dec-2016

 ---------------------------------------------------------------
 #p ROCCSD(T)/cc-pVTZ Guess=Read SCF=(VeryTight,CDIIS,VShift=10)
 ---------------------------------------------------------------

 ---------
 O2_O2_264
 ---------
 Symbolic Z-matrix:
 Charge = -1 Multiplicity = 6

                         Standard orientation:
 ---------------------------------------------------------------------
 Center     Atomic      Atomic             Coordinates (Angstroms)
 Number     Number       Type             X           Y           Z
 ---------------------------------------------------------------------
      1          8           0        0.000000    0.000000    2.661509
      2          8           0        0.000000    0.000000    4.013889
      3          8           0        0.000000    0.000000   -4.013889
      4          8           0        0.000000    0.000000   -2.661509
 ---------------------------------------------------------------------

 SCF Done:  E(ROHF) =  -298.982770741     A.U. after   14 cycles
 E2 =    -0.1078419822D+01 EUMP2 =    -0.30006119056326D+03
 CCSD(T)
 CCSD(T)= -0.30003087791D+03

 The electronic state is 6-SGG.
 Alpha  occ. eigenvalues --  -20.50576 -20.50575 -20.48669 -20.48668  -1.36858
 Alpha  occ. eigenvalues --   -1.36858  -1.00954  -1.00774  -0.53010  -0.53010
 Alpha  occ. eigenvalues --   -0.53009  -0.53009  -0.52301  -0.52091  -0.33113
 Alpha  occ. eigenvalues --   -0.33113  -0.33112  -0.33112   0.19297
 Alpha virt. eigenvalues --    0.27540   0.84832   0.85290   0.89537   0.89537
 Alpha virt. eigenvalues --    0.89546   0.89546   0.94062   0.94482   0.98820
 Alpha virt. eigenvalues --    0.98820   0.98849   0.98849   1.09879   1.09882

 Mulliken charges and spin densities:
               1          2
     1  O   -0.202890   1.304781
     2  O   -0.297110   1.195219
     3  O   -0.297110   1.195219
     4  O   -0.202890   1.304781
 Sum of Mulliken charges =  -1.00000   5.00000

 Dipole moment (field-independent basis, Debye):
    X=             -0.0000    Y=              0.0000    Z=              0.0000  Tot=              0.0000
 Quadrupole moment (field-independent basis, Debye-Ang):
   XX=            -22.1632   YY=            -22.1632   ZZ=            -85.2045
   XY=             -0.0000   XZ=              0.0000   YZ=             -0.0000

 P4SDQ=-299.9909605\CCSD=-299.9786123\CCSD(T)=-300.0308779\RMSD=6.152e-
 Normal termination of Gaussian 16 at Mon Jan 16 04:46:56 2023.
