 Gaussian 16, Revision A.03,
 Gaussian 16:  ES64L-G16RevA.03 25-Dec-2016

 ---------------------------------------------------------------
 #p ROCCSD(T)/cc-pVTZ Guess=Read SCF=(VeryTight,CDIIS,VShift=10)
 ---------------------------------------------------------------

 --------
 O2_O2_23
 --------
 Symbolic Z-matrix:
 Charge = -1 Multiplicity = 6

                         Standard orientation:
 ---------------------------------------------------------------------
 Center     Atomic      Atomic             Coordinates (Angstroms)
 Number     Number       Type             X           Y           Z
 ---------------------------------------------------------------------
      1          8           0        0.000000    0.000000    0.955399
      2          8           0        0.000000    0.000000    2.307779
      3          8           0        0.000000    0.000000   -2.307779
      4          8           0        0.000000    0.000000   -0.955399
 ---------------------------------------------------------------------

 SCF Done:  E(ROHF) =  -298.978081604     A.U. after   11 cycles
 E2 =    -0.1079945891D+01 EUMP2 =    -0.30005802749428D+03
 CCSD(T)
 CCSD(T)= -0.30003296639D+03

 The electronic state is 6-SGG.
 Alpha  occ. eigenvalues --  -20.43745 -20.43744 -20.43637 -20.43630  -1.32787
 Alpha  occ. eigenvalues --   -1.31307  -1.00054  -0.93277  -0.53659  -0.48878
 Alpha  occ. eigenvalues --   -0.48878  -0.47024  -0.47024  -0.40456  -0.29793
 Alpha  occ. eigenvalues --   -0.29793  -0.26188  -0.26188   0.14885
 Alpha virt. eigenvalues --    0.46400   0.86500   0.89520   0.91569   0.91569
 Alpha virt. eigenvalues --    0.94905   0.94905   0.98947   0.98947   1.12490
 Alpha virt. eigenvalues --    1.12633   1.17013   1.17013   1.20712   1.65452

 Mulliken charges and spin densities:
               1          2
     1  O   -0.182030   1.180246
     2  O   -0.317970   1.319754
     3  O   -0.317970   1.319754
     4  O   -0.182030   1.180246
 Sum of Mulliken charges =  -1.00000   5.00000

 Dipole moment (field-independent basis, Debye):
    X=             -0.0000    Y=              0.0000    Z=             -0.0000  Tot=              0.0000
 Quadrupole moment (field-independent basis, Debye-Ang):
   XX=            -22.1563   YY=            -22.1563   ZZ=            -43.7534
   XY=             -0.0000   XZ=              0.0000   YZ=             -0.0000

 5\MP4SDQ=-299.9925225\CCSD=-299.9791358\CCSD(T)=-300.0329664\RMSD=8.64
 Normal termination of Gaussian 16 at Sun Jan 15 00:08:08 2023.
