 Gaussian 16, Revision A.03,
 Gaussian 16:  ES64L-G16RevA.03 25-Dec-2016

 ---------------------------------------------------------------
 #p ROCCSD(T)/cc-pVTZ Guess=Read SCF=(VeryTight,CDIIS,VShift=10)
 ---------------------------------------------------------------

 ---------
 O2_O2_145
 ---------
 Symbolic Z-matrix:
 Charge = -1 Multiplicity = 6

                         Standard orientation:
 ---------------------------------------------------------------------
 Center     Atomic      Atomic             Coordinates (Angstroms)
 Number     Number       Type             X           Y           Z
 ---------------------------------------------------------------------
      1          8           0        0.000000    0.000000    1.819073
      2          8           0        0.000000    0.000000    3.171453
      3          8           0        0.000000    0.000000   -3.171453
      4          8           0        0.000000    0.000000   -1.819073
 ---------------------------------------------------------------------

 SCF Done:  E(ROHF) =  -298.999664175     A.U. after   12 cycles
 E2 =    -0.1074566253D+01 EUMP2 =    -0.30007423042877D+03
 CCSD(T)
 CCSD(T)= -0.30004683439D+03

 The electronic state is 6-SGG.
 Alpha  occ. eigenvalues --  -20.51046 -20.51045 -20.47202 -20.47202  -1.36032
 Alpha  occ. eigenvalues --   -1.36018  -0.99957  -0.99687  -0.52353  -0.52353
 Alpha  occ. eigenvalues --   -0.52315  -0.52315  -0.51163  -0.50200  -0.32209
 Alpha  occ. eigenvalues --   -0.32209  -0.32144  -0.32144   0.17950
 Alpha virt. eigenvalues --    0.32963   0.78486   0.89819   0.90053   0.90053
 Alpha virt. eigenvalues --    0.90997   0.90997   0.92433   0.99013   0.99013
 Alpha virt. eigenvalues --    1.01206   1.01206   1.09259   1.10850   1.10924

 Mulliken charges and spin densities:
               1          2
     1  O   -0.172699   1.354255
     2  O   -0.327301   1.145745
     3  O   -0.327301   1.145745
     4  O   -0.172699   1.354255
 Sum of Mulliken charges =  -1.00000   5.00000

 Dipole moment (field-independent basis, Debye):
    X=             -0.0000    Y=              0.0000    Z=              0.0000  Tot=              0.0000
 Quadrupole moment (field-independent basis, Debye-Ang):
   XX=            -22.1942   YY=            -22.1942   ZZ=            -61.5149
   XY=             -0.0000   XZ=              0.0000   YZ=             -0.0000

 04\MP4SDQ=-300.0083371\CCSD=-299.9947637\CCSD(T)=-300.0468344\RMSD=9.0
 Normal termination of Gaussian 16 at Sun Jan 15 05:25:16 2023.
