 Gaussian 16, Revision A.03,
 Gaussian 16:  ES64L-G16RevA.03 25-Dec-2016

 ---------------------------------------------------------------
 #p ROCCSD(T)/cc-pVTZ Guess=Read SCF=(VeryTight,CDIIS,VShift=10)
 ---------------------------------------------------------------

 ---------
 O2_O2_219
 ---------
 Symbolic Z-matrix:
 Charge = -1 Multiplicity = 6

                         Standard orientation:
 ---------------------------------------------------------------------
 Center     Atomic      Atomic             Coordinates (Angstroms)
 Number     Number       Type             X           Y           Z
 ---------------------------------------------------------------------
      1          8           0        0.000000    0.000000    2.342940
      2          8           0        0.000000    0.000000    3.695320
      3          8           0        0.000000    0.000000   -3.695320
      4          8           0        0.000000    0.000000   -2.342940
 ---------------------------------------------------------------------

 SCF Done:  E(ROHF) =  -298.984919113     A.U. after   16 cycles
 E2 =    -0.1077496628D+01 EUMP2 =    -0.30006241574057D+03
 CCSD(T)
 CCSD(T)= -0.30003289960D+03

 The electronic state is 6-SGG.
 Alpha  occ. eigenvalues --  -20.50471 -20.50470 -20.48143 -20.48142  -1.36507
 Alpha  occ. eigenvalues --   -1.36505  -1.00571  -1.00385  -0.52685  -0.52685
 Alpha  occ. eigenvalues --   -0.52682  -0.52682  -0.51912  -0.51589  -0.32738
 Alpha  occ. eigenvalues --   -0.32738  -0.32733  -0.32733   0.19129
 Alpha virt. eigenvalues --    0.28767   0.84248   0.86740   0.89885   0.89885
 Alpha virt. eigenvalues --    0.89944   0.89944   0.93944   0.95722   0.99165
 Alpha virt. eigenvalues --    0.99165   0.99318   0.99318   1.10249   1.10251

 Mulliken charges and spin densities:
               1          2
     1  O   -0.193863   1.315775
     2  O   -0.306137   1.184225
     3  O   -0.306137   1.184225
     4  O   -0.193863   1.315775
 Sum of Mulliken charges =  -1.00000   5.00000

 Dipole moment (field-independent basis, Debye):
    X=             -0.0000    Y=              0.0000    Z=             -0.0000  Tot=              0.0000
 Quadrupole moment (field-independent basis, Debye-Ang):
   XX=            -22.1688   YY=            -22.1688   ZZ=            -75.7033
   XY=             -0.0000   XZ=              0.0000   YZ=             -0.0000

 \MP4SDQ=-299.9931927\CCSD=-299.9806698\CCSD(T)=-300.0328996\RMSD=2.081
 Normal termination of Gaussian 16 at Sun Jan 15 08:43:32 2023.
