 Gaussian 16, Revision A.03,
 Gaussian 16:  ES64L-G16RevA.03 25-Dec-2016

 ---------------------------------------------------------------
 #p ROCCSD(T)/cc-pVTZ Guess=Read SCF=(VeryTight,CDIIS,VShift=10)
 ---------------------------------------------------------------

 ---------
 O2_O2_101
 ---------
 Symbolic Z-matrix:
 Charge = -1 Multiplicity = 6

                         Standard orientation:
 ---------------------------------------------------------------------
 Center     Atomic      Atomic             Coordinates (Angstroms)
 Number     Number       Type             X           Y           Z
 ---------------------------------------------------------------------
      1          8           0        0.000000    0.000000    1.507584
      2          8           0        0.000000    0.000000    2.859964
      3          8           0        0.000000    0.000000   -2.859964
      4          8           0        0.000000    0.000000   -1.507584
 ---------------------------------------------------------------------

 SCF Done:  E(ROHF) =  -299.008214366     A.U. after   14 cycles
 E2 =    -0.1073716551D+01 EUMP2 =    -0.30008193091705D+03
 CCSD(T)
 CCSD(T)= -0.30005586640D+03

 The electronic state is 6-SGG.
 Alpha  occ. eigenvalues --  -20.50689 -20.50687 -20.45842 -20.45842  -1.35250
 Alpha  occ. eigenvalues --   -1.35175  -0.99221  -0.98613  -0.51632  -0.51632
 Alpha  occ. eigenvalues --   -0.51459  -0.51459  -0.50789  -0.48539  -0.31355
 Alpha  occ. eigenvalues --   -0.31355  -0.31105  -0.31105   0.16907
 Alpha virt. eigenvalues --    0.36305   0.81153   0.89441   0.89441   0.89622
 Alpha virt. eigenvalues --    0.92272   0.92473   0.92473   0.98258   0.98258
 Alpha virt. eigenvalues --    1.04859   1.04859   1.11415   1.11784   1.30720

 Mulliken charges and spin densities:
               1          2
     1  O   -0.153637   1.374685
     2  O   -0.346363   1.125315
     3  O   -0.346363   1.125315
     4  O   -0.153637   1.374685
 Sum of Mulliken charges =  -1.00000   5.00000

 Dipole moment (field-independent basis, Debye):
    X=             -0.0000    Y=              0.0000    Z=             -0.0000  Tot=              0.0000
 Quadrupole moment (field-independent basis, Debye-Ang):
   XX=            -22.1974   YY=            -22.1974   ZZ=            -54.6663
   XY=             -0.0000   XZ=              0.0000   YZ=             -0.0000

 09\MP4SDQ=-300.0176944\CCSD=-300.0036054\CCSD(T)=-300.0558664\RMSD=3.0
 Normal termination of Gaussian 16 at Sun Jan 15 03:31:27 2023.
