 Gaussian 16, Revision A.03,
 Gaussian 16:  ES64L-G16RevA.03 25-Dec-2016

 ---------------------------------------------------------------
 #p ROCCSD(T)/cc-pVTZ Guess=Read SCF=(VeryTight,CDIIS,VShift=10)
 ---------------------------------------------------------------

 --------
 O2_O2_41
 --------
 Symbolic Z-matrix:
 Charge = -1 Multiplicity = 6

                         Standard orientation:
 ---------------------------------------------------------------------
 Center     Atomic      Atomic             Coordinates (Angstroms)
 Number     Number       Type             X           Y           Z
 ---------------------------------------------------------------------
      1          8           0        0.000000    0.000000    1.082827
      2          8           0        0.000000    0.000000    2.435207
      3          8           0        0.000000    0.000000   -2.435207
      4          8           0        0.000000    0.000000   -1.082827
 ---------------------------------------------------------------------

 SCF Done:  E(ROHF) =  -298.998559409     A.U. after   14 cycles
 E2 =    -0.1080024890D+01 EUMP2 =    -0.30007858429938D+03
 CCSD(T)
 CCSD(T)= -0.30005080246D+03

 The electronic state is 6-SGG.
 Alpha  occ. eigenvalues --  -20.46462 -20.46458 -20.43965 -20.43965  -1.33335
 Alpha  occ. eigenvalues --   -1.32564  -0.98990  -0.95314  -0.52240  -0.49512
 Alpha  occ. eigenvalues --   -0.49512  -0.48338  -0.48338  -0.43679  -0.29937
 Alpha  occ. eigenvalues --   -0.29937  -0.28112  -0.28112   0.15621
 Alpha virt. eigenvalues --    0.42184   0.87587   0.89656   0.89656   0.90714
 Alpha virt. eigenvalues --    0.94575   0.94575   0.98211   0.98211   1.08045
 Alpha virt. eigenvalues --    1.12452   1.13962   1.13962   1.14037   1.59611

 Mulliken charges and spin densities:
               1          2
     1  O   -0.156114   1.272528
     2  O   -0.343886   1.227472
     3  O   -0.343886   1.227472
     4  O   -0.156114   1.272528
 Sum of Mulliken charges =  -1.00000   5.00000

 Dipole moment (field-independent basis, Debye):
    X=             -0.0000    Y=              0.0000    Z=              0.0000  Tot=              0.0000
 Quadrupole moment (field-independent basis, Debye-Ang):
   XX=            -22.1900   YY=            -22.1900   ZZ=            -46.6844
   XY=             -0.0000   XZ=              0.0000   YZ=             -0.0000

 3\MP4SDQ=-300.0113771\CCSD=-299.9975363\CCSD(T)=-300.0508025\RMSD=6.18
 Normal termination of Gaussian 16 at Sun Jan 15 00:53:29 2023.
