 Gaussian 16, Revision A.03,
 Gaussian 16:  ES64L-G16RevA.03 25-Dec-2016

 ---------------------------------------------------------------
 #p ROCCSD(T)/cc-pVTZ Guess=Read SCF=(VeryTight,CDIIS,VShift=10)
 ---------------------------------------------------------------

 ---------
 O2_O2_176
 ---------
 Symbolic Z-matrix:
 Charge = -1 Multiplicity = 6

                         Standard orientation:
 ---------------------------------------------------------------------
 Center     Atomic      Atomic             Coordinates (Angstroms)
 Number     Number       Type             X           Y           Z
 ---------------------------------------------------------------------
      1          8           0        0.000000    0.000000    2.038531
      2          8           0        0.000000    0.000000    3.390911
      3          8           0        0.000000    0.000000   -3.390911
      4          8           0        0.000000    0.000000   -2.038531
 ---------------------------------------------------------------------

 SCF Done:  E(ROHF) =  -298.991487751     A.U. after   13 cycles
 E2 =    -0.1076048172D+01 EUMP2 =    -0.30006753592216D+03
 CCSD(T)
 CCSD(T)= -0.30003904902D+03

 The electronic state is 6-SGG.
 Alpha  occ. eigenvalues --  -20.50675 -20.50674 -20.47671 -20.47671  -1.36232
 Alpha  occ. eigenvalues --   -1.36227  -1.00232  -1.00021  -0.52471  -0.52471
 Alpha  occ. eigenvalues --   -0.52459  -0.52459  -0.51496  -0.50922  -0.32444
 Alpha  occ. eigenvalues --   -0.32444  -0.32420  -0.32420   0.18628
 Alpha virt. eigenvalues --    0.30779   0.81349   0.88965   0.90103   0.90103
 Alpha virt. eigenvalues --    0.90431   0.90431   0.93047   0.99276   0.99276
 Alpha virt. eigenvalues --    1.00069   1.00069   1.00421   1.10579   1.10610

 Mulliken charges and spin densities:
               1          2
     1  O   -0.183552   1.332396
     2  O   -0.316448   1.167604
     3  O   -0.316448   1.167604
     4  O   -0.183552   1.332396
 Sum of Mulliken charges =  -1.00000   5.00000

 Dipole moment (field-independent basis, Debye):
    X=             -0.0000    Y=              0.0000    Z=              0.0000  Tot=              0.0000
 Quadrupole moment (field-independent basis, Debye-Ang):
   XX=            -22.1820   YY=            -22.1820   ZZ=            -67.2360
   XY=             -0.0000   XZ=              0.0000   YZ=             -0.0000

 59\MP4SDQ=-299.9999113\CCSD=-299.9869169\CCSD(T)=-300.039049\RMSD=5.69
 Normal termination of Gaussian 16 at Sun Jan 15 06:48:09 2023.
