 Gaussian 16, Revision A.03,
 Gaussian 16:  ES64L-G16RevA.03 25-Dec-2016

 ---------------------------------------------------------------
 #p ROCCSD(T)/cc-pVTZ Guess=Read SCF=(VeryTight,CDIIS,VShift=10)
 ---------------------------------------------------------------

 ---------
 O2_O2_242
 ---------
 Symbolic Z-matrix:
 Charge = -1 Multiplicity = 6

                         Standard orientation:
 ---------------------------------------------------------------------
 Center     Atomic      Atomic             Coordinates (Angstroms)
 Number     Number       Type             X           Y           Z
 ---------------------------------------------------------------------
      1          8           0        0.000000    0.000000    2.505764
      2          8           0        0.000000    0.000000    3.858144
      3          8           0        0.000000    0.000000   -3.858144
      4          8           0        0.000000    0.000000   -2.505764
 ---------------------------------------------------------------------

 SCF Done:  E(ROHF) =  -298.983457224     A.U. after   12 cycles
 E2 =    -0.1078021348D+01 EUMP2 =    -0.30006147857180D+03
 CCSD(T)
 CCSD(T)= -0.30003152935D+03

 The electronic state is 6-SGG.
 Alpha  occ. eigenvalues --  -20.50504 -20.50503 -20.48410 -20.48410  -1.36684
 Alpha  occ. eigenvalues --   -1.36683  -1.00767  -1.00585  -0.52846  -0.52846
 Alpha  occ. eigenvalues --   -0.52845  -0.52845  -0.52117  -0.51862  -0.32927
 Alpha  occ. eigenvalues --   -0.32927  -0.32925  -0.32925   0.19241
 Alpha virt. eigenvalues --    0.28066   0.84734   0.85838   0.89710   0.89710
 Alpha virt. eigenvalues --    0.89732   0.89732   0.94095   0.94911   0.98997
 Alpha virt. eigenvalues --    0.98997   0.99059   0.99059   1.10058   1.10061

 Mulliken charges and spin densities:
               1          2
     1  O   -0.198643   1.309784
     2  O   -0.301357   1.190216
     3  O   -0.301357   1.190216
     4  O   -0.198643   1.309784
 Sum of Mulliken charges =  -1.00000   5.00000

 Dipole moment (field-independent basis, Debye):
    X=             -0.0000    Y=              0.0000    Z=              0.0000  Tot=              0.0000
 Quadrupole moment (field-independent basis, Debye-Ang):
   XX=            -22.1652   YY=            -22.1652   ZZ=            -80.4605
   XY=             -0.0000   XZ=              0.0000   YZ=             -0.0000

 P4SDQ=-299.9916846\CCSD=-299.9792749\CCSD(T)=-300.0315294\RMSD=5.840e-
 Normal termination of Gaussian 16 at Mon Jan 16 04:21:15 2023.
