 Gaussian 16, Revision A.03,
 Gaussian 16:  ES64L-G16RevA.03 25-Dec-2016

 ---------------------------------------------------------------
 #p ROCCSD(T)/cc-pVTZ Guess=Read SCF=(VeryTight,CDIIS,VShift=10)
 ---------------------------------------------------------------

 ---------
 O2_O2_137
 ---------
 Symbolic Z-matrix:
 Charge = -1 Multiplicity = 6

                         Standard orientation:
 ---------------------------------------------------------------------
 Center     Atomic      Atomic             Coordinates (Angstroms)
 Number     Number       Type             X           Y           Z
 ---------------------------------------------------------------------
      1          8           0        0.000000    0.000000    1.762439
      2          8           0        0.000000    0.000000    3.114819
      3          8           0        0.000000    0.000000   -3.114819
      4          8           0        0.000000    0.000000   -1.762439
 ---------------------------------------------------------------------

 SCF Done:  E(ROHF) =  -299.001825591     A.U. after   13 cycles
 E2 =    -0.1074188676D+01 EUMP2 =    -0.30007601426672D+03
 CCSD(T)
 CCSD(T)= -0.30004894622D+03

 The electronic state is 6-SGG.
 Alpha  occ. eigenvalues --  -20.51115 -20.51113 -20.47020 -20.47020  -1.35951
 Alpha  occ. eigenvalues --   -1.35931  -0.99858  -0.99559  -0.52294  -0.52294
 Alpha  occ. eigenvalues --   -0.52243  -0.52243  -0.51075  -0.49961  -0.32111
 Alpha  occ. eigenvalues --   -0.32111  -0.32028  -0.32028   0.17748
 Alpha virt. eigenvalues --    0.33592   0.78119   0.89894   0.89997   0.89997
 Alpha virt. eigenvalues --    0.91203   0.91203   0.92351   0.98892   0.98892
 Alpha virt. eigenvalues --    1.01655   1.01655   1.10844   1.11034   1.12542

 Mulliken charges and spin densities:
               1          2
     1  O   -0.169188   1.360773
     2  O   -0.330812   1.139227
     3  O   -0.330812   1.139227
     4  O   -0.169188   1.360773
 Sum of Mulliken charges =  -1.00000   5.00000

 Dipole moment (field-independent basis, Debye):
    X=             -0.0000    Y=             -0.0000    Z=             -0.0000  Tot=              0.0000
 Quadrupole moment (field-independent basis, Debye-Ang):
   XX=            -22.1964   YY=            -22.1964   ZZ=            -60.1373
   XY=             -0.0000   XZ=              0.0000   YZ=             -0.0000

 43\MP4SDQ=-300.0105951\CCSD=-299.9968727\CCSD(T)=-300.0489462\RMSD=6.1
 Normal termination of Gaussian 16 at Sun Jan 15 05:05:38 2023.
