 Gaussian 16, Revision A.03,
 Gaussian 16:  ES64L-G16RevA.03 25-Dec-2016

 ---------------------------------------------------------------
 #p ROCCSD(T)/cc-pVTZ Guess=Read SCF=(VeryTight,CDIIS,VShift=10)
 ---------------------------------------------------------------

 ---------
 O2_O2_273
 ---------
 Symbolic Z-matrix:
 Charge = -1 Multiplicity = 6

                         Standard orientation:
 ---------------------------------------------------------------------
 Center     Atomic      Atomic             Coordinates (Angstroms)
 Number     Number       Type             X           Y           Z
 ---------------------------------------------------------------------
      1          8           0        0.000000    0.000000    2.725222
      2          8           0        0.000000    0.000000    4.077602
      3          8           0        0.000000    0.000000   -4.077602
      4          8           0        0.000000    0.000000   -2.725222
 ---------------------------------------------------------------------

 SCF Done:  E(ROHF) =  -298.982608058     A.U. after    9 cycles
 E2 =    -0.1078561549D+01 EUMP2 =    -0.30006116960717D+03
 CCSD(T)
 CCSD(T)= -0.30003072098D+03

 The electronic state is 6-SGG.
 Alpha  occ. eigenvalues --  -20.50610 -20.50610 -20.48772 -20.48772  -1.36929
 Alpha  occ. eigenvalues --   -1.36928  -1.01028  -1.00849  -0.53077  -0.53077
 Alpha  occ. eigenvalues --   -0.53077  -0.53077  -0.52373  -0.52177  -0.33187
 Alpha  occ. eigenvalues --   -0.33187  -0.33187  -0.33187   0.19310
 Alpha virt. eigenvalues --    0.27354   0.84816   0.85129   0.89467   0.89467
 Alpha virt. eigenvalues --    0.89473   0.89473   0.94020   0.94353   0.98748
 Alpha virt. eigenvalues --    0.98748   0.98770   0.98770   1.09808   1.09811

 Mulliken charges and spin densities:
               1          2
     1  O   -0.204526   1.302886
     2  O   -0.295474   1.197114
     3  O   -0.295474   1.197114
     4  O   -0.204526   1.302886
 Sum of Mulliken charges =  -1.00000   5.00000

 Dipole moment (field-independent basis, Debye):
    X=             -0.0000    Y=              0.0000    Z=             -0.0000  Tot=              0.0000
 Quadrupole moment (field-independent basis, Debye-Ang):
   XX=            -22.1626   YY=            -22.1626   ZZ=            -87.2063
   XY=             -0.0000   XZ=              0.0000   YZ=             -0.0000

 P4SDQ=-299.9907838\CCSD=-299.9784529\CCSD(T)=-300.030721\RMSD=9.165e-0
 Normal termination of Gaussian 16 at Mon Jan 16 04:57:36 2023.
