 Gaussian 16, Revision A.03,
 Gaussian 16:  ES64L-G16RevA.03 25-Dec-2016

 ---------------------------------------------------------------
 #p ROCCSD(T)/cc-pVTZ Guess=Read SCF=(VeryTight,CDIIS,VShift=10)
 ---------------------------------------------------------------

 ---------
 O2_O2_157
 ---------
 Symbolic Z-matrix:
 Charge = -1 Multiplicity = 6

                         Standard orientation:
 ---------------------------------------------------------------------
 Center     Atomic      Atomic             Coordinates (Angstroms)
 Number     Number       Type             X           Y           Z
 ---------------------------------------------------------------------
      1          8           0        0.000000    0.000000    1.904024
      2          8           0        0.000000    0.000000    3.256404
      3          8           0        0.000000    0.000000   -3.256404
      4          8           0        0.000000    0.000000   -1.904024
 ---------------------------------------------------------------------

 SCF Done:  E(ROHF) =  -298.996320480     A.U. after   11 cycles
 E2 =    -0.1075164830D+01 EUMP2 =    -0.30007148531097D+03
 CCSD(T)
 CCSD(T)= -0.30004362324D+03

 The electronic state is 6-SGG.
 Alpha  occ. eigenvalues --  -20.50902 -20.50901 -20.47420 -20.47419  -1.36123
 Alpha  occ. eigenvalues --   -1.36113  -1.00077  -0.99838  -0.52410  -0.52410
 Alpha  occ. eigenvalues --   -0.52384  -0.52384  -0.51295  -0.50514  -0.32318
 Alpha  occ. eigenvalues --   -0.32318  -0.32274  -0.32274   0.18240
 Alpha virt. eigenvalues --    0.32054   0.79443   0.89601   0.90101   0.90101
 Alpha virt. eigenvalues --    0.90741   0.90741   0.92622   0.99156   0.99156
 Alpha virt. eigenvalues --    1.00668   1.00668   1.05189   1.10720   1.10787

 Mulliken charges and spin densities:
               1          2
     1  O   -0.177442   1.344730
     2  O   -0.322558   1.155270
     3  O   -0.322558   1.155270
     4  O   -0.177442   1.344730
 Sum of Mulliken charges =  -1.00000   5.00000

 Dipole moment (field-independent basis, Debye):
    X=             -0.0000    Y=              0.0000    Z=             -0.0000  Tot=              0.0000
 Quadrupole moment (field-independent basis, Debye-Ang):
   XX=            -22.1899   YY=            -22.1899   ZZ=            -63.6705
   XY=             -0.0000   XZ=              0.0000   YZ=             -0.0000

 53\MP4SDQ=-300.004876\CCSD=-299.9915383\CCSD(T)=-300.0436232\RMSD=8.10
 Normal termination of Gaussian 16 at Sun Jan 15 05:56:51 2023.
