 Gaussian 16, Revision A.03,
 Gaussian 16:  ES64L-G16RevA.03 25-Dec-2016

 ---------------------------------------------------------------
 #p ROCCSD(T)/cc-pVTZ Guess=Read SCF=(VeryTight,CDIIS,VShift=10)
 ---------------------------------------------------------------

 --------
 O2_O2_15
 --------
 Symbolic Z-matrix:
 Charge = -1 Multiplicity = 6

                         Standard orientation:
 ---------------------------------------------------------------------
 Center     Atomic      Atomic             Coordinates (Angstroms)
 Number     Number       Type             X           Y           Z
 ---------------------------------------------------------------------
      1          8           0        0.000000    0.000000    0.898765
      2          8           0        0.000000    0.000000    2.251145
      3          8           0        0.000000    0.000000   -2.251145
      4          8           0        0.000000    0.000000   -0.898765
 ---------------------------------------------------------------------

 SCF Done:  E(ROHF) =  -298.961037941     A.U. after   14 cycles
 E2 =    -0.1076438946D+01 EUMP2 =    -0.30003747688689D+03
 CCSD(T)
 CCSD(T)= -0.30001686926D+03

 The electronic state is 6-SGG.
 Alpha  occ. eigenvalues --  -20.43663 -20.43662 -20.41957 -20.41948  -1.32608
 Alpha  occ. eigenvalues --   -1.30657  -1.00952  -0.92027  -0.54486  -0.48678
 Alpha  occ. eigenvalues --   -0.48678  -0.46484  -0.46484  -0.38474  -0.29810
 Alpha  occ. eigenvalues --   -0.29810  -0.24864  -0.24864   0.14368
 Alpha virt. eigenvalues --    0.49307   0.85952   0.88905   0.92546   0.92546
 Alpha virt. eigenvalues --    0.94993   0.94993   0.99702   0.99702   1.12644
 Alpha virt. eigenvalues --    1.12665   1.18398   1.18398   1.24446   1.66260

 Mulliken charges and spin densities:
               1          2
     1  O   -0.200890   1.122284
     2  O   -0.299110   1.377716
     3  O   -0.299110   1.377716
     4  O   -0.200890   1.122284
 Sum of Mulliken charges =  -1.00000   5.00000

 Dipole moment (field-independent basis, Debye):
    X=             -0.0000    Y=              0.0000    Z=              0.0000  Tot=              0.0000
 Quadrupole moment (field-independent basis, Debye-Ang):
   XX=            -22.1251   YY=            -22.1251   ZZ=            -42.3250
   XY=             -0.0000   XZ=              0.0000   YZ=             -0.0000

 P4SDQ=-299.9755587\CCSD=-299.962764\CCSD(T)=-300.0168693\RMSD=3.460e-0
 Normal termination of Gaussian 16 at Sat Jan 14 23:45:52 2023.
