 Gaussian 16, Revision A.03,
 Gaussian 16:  ES64L-G16RevA.03 25-Dec-2016

 ---------------------------------------------------------------
 #p ROCCSD(T)/cc-pVTZ Guess=Read SCF=(VeryTight,CDIIS,VShift=10)
 ---------------------------------------------------------------

 ---------
 O2_O2_124
 ---------
 Symbolic Z-matrix:
 Charge = -1 Multiplicity = 6

                         Standard orientation:
 ---------------------------------------------------------------------
 Center     Atomic      Atomic             Coordinates (Angstroms)
 Number     Number       Type             X           Y           Z
 ---------------------------------------------------------------------
      1          8           0        0.000000    0.000000    1.670408
      2          8           0        0.000000    0.000000    3.022788
      3          8           0        0.000000    0.000000   -3.022788
      4          8           0        0.000000    0.000000   -1.670408
 ---------------------------------------------------------------------

 SCF Done:  E(ROHF) =  -299.004904774     A.U. after   11 cycles
 E2 =    -0.1073711601D+01 EUMP2 =    -0.30007861637505D+03
 CCSD(T)
 CCSD(T)= -0.30005205401D+03

 The electronic state is 6-SGG.
 Alpha  occ. eigenvalues --  -20.51126 -20.51125 -20.46654 -20.46654  -1.35766
 Alpha  occ. eigenvalues --   -1.35734  -0.99661  -0.99292  -0.52138  -0.52138
 Alpha  occ. eigenvalues --   -0.52059  -0.52059  -0.50939  -0.49517  -0.31898
 Alpha  occ. eigenvalues --   -0.31898  -0.31774  -0.31774   0.17421
 Alpha virt. eigenvalues --    0.34612   0.78214   0.89857   0.89857   0.89910
 Alpha virt. eigenvalues --    0.91603   0.91603   0.92285   0.98666   0.98666
 Alpha virt. eigenvalues --    1.02574   1.02574   1.11034   1.11255   1.18453

 Mulliken charges and spin densities:
               1          2
     1  O   -0.163201   1.369983
     2  O   -0.336799   1.130017
     3  O   -0.336799   1.130017
     4  O   -0.163201   1.369983
 Sum of Mulliken charges =  -1.00000   5.00000

 Dipole moment (field-independent basis, Debye):
    X=             -0.0000    Y=              0.0000    Z=              0.0000  Tot=              0.0000
 Quadrupole moment (field-independent basis, Debye-Ang):
   XX=            -22.1983   YY=            -22.1983   ZZ=            -58.0226
   XY=             -0.0000   XZ=              0.0000   YZ=             -0.0000

 4\MP4SDQ=-300.0138714\CCSD=-299.9999477\CCSD(T)=-300.052054\RMSD=8.624
 Normal termination of Gaussian 16 at Sun Jan 15 04:31:10 2023.
