 Gaussian 16, Revision A.03,
 Gaussian 16:  ES64L-G16RevA.03 25-Dec-2016

 ---------------------------------------------------------------
 #p ROCCSD(T)/cc-pVTZ Guess=Read SCF=(VeryTight,CDIIS,VShift=10)
 ---------------------------------------------------------------

 --------
 O2_O2_48
 --------
 Symbolic Z-matrix:
 Charge = -1 Multiplicity = 6

                         Standard orientation:
 ---------------------------------------------------------------------
 Center     Atomic      Atomic             Coordinates (Angstroms)
 Number     Number       Type             X           Y           Z
 ---------------------------------------------------------------------
      1          8           0        0.000000    0.000000    1.132382
      2          8           0        0.000000    0.000000    2.484762
      3          8           0        0.000000    0.000000   -2.484762
      4          8           0        0.000000    0.000000   -1.132382
 ---------------------------------------------------------------------

 SCF Done:  E(ROHF) =  -299.002491339     A.U. after   14 cycles
 E2 =    -0.1079014673D+01 EUMP2 =    -0.30008150601200D+03
 CCSD(T)
 CCSD(T)= -0.30005384413D+03

 The electronic state is 6-SGG.
 Alpha  occ. eigenvalues --  -20.47263 -20.47260 -20.44104 -20.44103  -1.33565
 Alpha  occ. eigenvalues --   -1.32973  -0.98809  -0.95896  -0.51841  -0.49777
 Alpha  occ. eigenvalues --   -0.49777  -0.48818  -0.48818  -0.44588  -0.30042
 Alpha  occ. eigenvalues --   -0.30042  -0.28621  -0.28621   0.15821
 Alpha virt. eigenvalues --    0.41087   0.87918   0.89212   0.89212   0.91105
 Alpha virt. eigenvalues --    0.94397   0.94397   0.98089   0.98089   1.03987
 Alpha virt. eigenvalues --    1.12355   1.12798   1.12798   1.13480   1.56995

 Mulliken charges and spin densities:
               1          2
     1  O   -0.151448   1.296715
     2  O   -0.348552   1.203285
     3  O   -0.348552   1.203285
     4  O   -0.151448   1.296715
 Sum of Mulliken charges =  -1.00000   5.00000

 Dipole moment (field-independent basis, Debye):
    X=             -0.0000    Y=              0.0000    Z=              0.0000  Tot=              0.0000
 Quadrupole moment (field-independent basis, Debye-Ang):
   XX=            -22.1946   YY=            -22.1946   ZZ=            -47.6992
   XY=             -0.0000   XZ=              0.0000   YZ=             -0.0000

 MP4SDQ=-300.0146513\CCSD=-300.0007584\CCSD(T)=-300.0538441\RMSD=5.511e
 Normal termination of Gaussian 16 at Sun Jan 15 01:12:44 2023.
