 Gaussian 16, Revision A.03,
 Gaussian 16:  ES64L-G16RevA.03 25-Dec-2016

 ---------------------------------------------------------------
 #p ROCCSD(T)/cc-pVTZ Guess=Read SCF=(VeryTight,CDIIS,VShift=10)
 ---------------------------------------------------------------

 ---------
 O2_O2_195
 ---------
 Symbolic Z-matrix:
 Charge = -1 Multiplicity = 6

                         Standard orientation:
 ---------------------------------------------------------------------
 Center     Atomic      Atomic             Coordinates (Angstroms)
 Number     Number       Type             X           Y           Z
 ---------------------------------------------------------------------
      1          8           0        0.000000    0.000000    2.173037
      2          8           0        0.000000    0.000000    3.525417
      3          8           0        0.000000    0.000000   -3.525417
      4          8           0        0.000000    0.000000   -2.173037
 ---------------------------------------------------------------------

 SCF Done:  E(ROHF) =  -298.987822113     A.U. after   12 cycles
 E2 =    -0.1076779017D+01 EUMP2 =    -0.30006460113035D+03
 CCSD(T)
 CCSD(T)= -0.30003561169D+03

 The electronic state is 6-SGG.
 Alpha  occ. eigenvalues --  -20.50529 -20.50528 -20.47879 -20.47878  -1.36342
 Alpha  occ. eigenvalues --   -1.36339  -1.00377  -1.00181  -0.52548  -0.52548
 Alpha  occ. eigenvalues --   -0.52541  -0.52541  -0.51685  -0.51250  -0.32563
 Alpha  occ. eigenvalues --   -0.32563  -0.32551  -0.32551   0.18909
 Alpha virt. eigenvalues --    0.29751   0.82998   0.88010   0.90034   0.90034
 Alpha virt. eigenvalues --    0.90193   0.90193   0.93514   0.97541   0.99277
 Alpha virt. eigenvalues --    0.99277   0.99670   0.99670   1.10440   1.10450

 Mulliken charges and spin densities:
               1          2
     1  O   -0.188456   1.323660
     2  O   -0.311544   1.176340
     3  O   -0.311544   1.176340
     4  O   -0.188456   1.323660
 Sum of Mulliken charges =  -1.00000   5.00000

 Dipole moment (field-independent basis, Debye):
    X=             -0.0000    Y=              0.0000    Z=              0.0000  Tot=              0.0000
 Quadrupole moment (field-independent basis, Debye-Ang):
   XX=            -22.1750   YY=            -22.1750   ZZ=            -70.9175
   XY=             -0.0000   XZ=              0.0000   YZ=             -0.0000

 11\MP4SDQ=-299.9961622\CCSD=-299.9834287\CCSD(T)=-300.0356117\RMSD=7.3
 Normal termination of Gaussian 16 at Sun Jan 15 07:39:48 2023.
