 Gaussian 16, Revision A.03,
 Gaussian 16:  ES64L-G16RevA.03 25-Dec-2016

 ---------------------------------------------------------------
 #p ROCCSD(T)/cc-pVTZ Guess=Read SCF=(VeryTight,CDIIS,VShift=10)
 ---------------------------------------------------------------

 ---------
 O2_O2_154
 ---------
 Symbolic Z-matrix:
 Charge = -1 Multiplicity = 6

                         Standard orientation:
 ---------------------------------------------------------------------
 Center     Atomic      Atomic             Coordinates (Angstroms)
 Number     Number       Type             X           Y           Z
 ---------------------------------------------------------------------
      1          8           0        0.000000    0.000000    1.882787
      2          8           0        0.000000    0.000000    3.235167
      3          8           0        0.000000    0.000000   -3.235167
      4          8           0        0.000000    0.000000   -1.882787
 ---------------------------------------------------------------------

 SCF Done:  E(ROHF) =  -298.997151625     A.U. after   13 cycles
 E2 =    -0.1075015372D+01 EUMP2 =    -0.30007216699628D+03
 CCSD(T)
 CCSD(T)= -0.30004441683D+03

 The electronic state is 6-SGG.
 Alpha  occ. eigenvalues --  -20.50940 -20.50939 -20.47371 -20.47370  -1.36103
 Alpha  occ. eigenvalues --   -1.36092  -1.00050  -0.99804  -0.52398  -0.52398
 Alpha  occ. eigenvalues --   -0.52370  -0.52370  -0.51263  -0.50441  -0.32294
 Alpha  occ. eigenvalues --   -0.32294  -0.32245  -0.32245   0.18170
 Alpha virt. eigenvalues --    0.32275   0.79171   0.89668   0.90093   0.90093
 Alpha virt. eigenvalues --    0.90799   0.90799   0.92567   0.99125   0.99125
 Alpha virt. eigenvalues --    1.00789   1.00789   1.06132   1.10745   1.10819

 Mulliken charges and spin densities:
               1          2
     1  O   -0.176323   1.347021
     2  O   -0.323677   1.152979
     3  O   -0.323677   1.152979
     4  O   -0.176323   1.347021
 Sum of Mulliken charges =  -1.00000   5.00000

 Dipole moment (field-independent basis, Debye):
    X=             -0.0000    Y=              0.0000    Z=             -0.0000  Tot=              0.0000
 Quadrupole moment (field-independent basis, Debye-Ang):
   XX=            -22.1910   YY=            -22.1910   ZZ=            -63.1230
   XY=             -0.0000   XZ=              0.0000   YZ=             -0.0000

 \MP4SDQ=-300.0057337\CCSD=-299.9923372\CCSD(T)=-300.0444168\RMSD=3.009
 Normal termination of Gaussian 16 at Sun Jan 15 05:49:04 2023.
