 Gaussian 16, Revision A.03,
 Gaussian 16:  ES64L-G16RevA.03 25-Dec-2016

 ---------------------------------------------------------------
 #p ROCCSD(T)/cc-pVTZ Guess=Read SCF=(VeryTight,CDIIS,VShift=10)
 ---------------------------------------------------------------

 --------
 O2_O2_38
 --------
 Symbolic Z-matrix:
 Charge = -1 Multiplicity = 6

                         Standard orientation:
 ---------------------------------------------------------------------
 Center     Atomic      Atomic             Coordinates (Angstroms)
 Number     Number       Type             X           Y           Z
 ---------------------------------------------------------------------
      1          8           0        0.000000    0.000000    1.061589
      2          8           0        0.000000    0.000000    2.413969
      3          8           0        0.000000    0.000000   -2.413969
      4          8           0        0.000000    0.000000   -1.061589
 ---------------------------------------------------------------------

 SCF Done:  E(ROHF) =  -298.996344638     A.U. after   11 cycles
 E2 =    -0.1080382783D+01 EUMP2 =    -0.30007672742164D+03
 CCSD(T)
 CCSD(T)= -0.30004900458D+03

 The electronic state is 6-SGG.
 Alpha  occ. eigenvalues --  -20.46075 -20.46070 -20.43916 -20.43915  -1.33238
 Alpha  occ. eigenvalues --   -1.32376  -0.99100  -0.95034  -0.52436  -0.49400
 Alpha  occ. eigenvalues --   -0.49400  -0.48124  -0.48124  -0.43239  -0.29899
 Alpha  occ. eigenvalues --   -0.29899  -0.27863  -0.27863   0.15525
 Alpha virt. eigenvalues --    0.42727   0.87430   0.89903   0.89903   0.90532
 Alpha virt. eigenvalues --    0.94643   0.94643   0.98282   0.98282   1.09562
 Alpha virt. eigenvalues --    1.12490   1.14464   1.14464   1.14499   1.60680

 Mulliken charges and spin densities:
               1          2
     1  O   -0.158896   1.260446
     2  O   -0.341104   1.239554
     3  O   -0.341104   1.239554
     4  O   -0.158896   1.260446
 Sum of Mulliken charges =  -1.00000   5.00000

 Dipole moment (field-independent basis, Debye):
    X=             -0.0000    Y=             -0.0000    Z=              0.0000  Tot=              0.0000
 Quadrupole moment (field-independent basis, Debye-Ang):
   XX=            -22.1868   YY=            -22.1868   ZZ=            -46.2300
   XY=             -0.0000   XZ=              0.0000   YZ=             -0.0000

 4\MP4SDQ=-300.0094615\CCSD=-299.9956538\CCSD(T)=-300.0490046\RMSD=8.17
 Normal termination of Gaussian 16 at Sun Jan 15 00:45:52 2023.
