 Gaussian 16, Revision A.03,
 Gaussian 16:  ES64L-G16RevA.03 25-Dec-2016

 ---------------------------------------------------------------
 #p ROCCSD(T)/cc-pVTZ Guess=Read SCF=(VeryTight,CDIIS,VShift=10)
 ---------------------------------------------------------------

 -------
 O2_O2_3
 -------
 Symbolic Z-matrix:
 Charge = -1 Multiplicity = 6

                         Standard orientation:
 ---------------------------------------------------------------------
 Center     Atomic      Atomic             Coordinates (Angstroms)
 Number     Number       Type             X           Y           Z
 ---------------------------------------------------------------------
      1          8           0        0.000000    0.000000    0.813813
      2          8           0        0.000000    0.000000    2.166194
      3          8           0        0.000000    0.000000   -2.166194
      4          8           0        0.000000    0.000000   -0.813813
 ---------------------------------------------------------------------

 SCF Done:  E(ROHF) =  -298.920066011     A.U. after   11 cycles
 E2 =    -0.1063807995D+01 EUMP2 =    -0.29998387400629D+03
 CCSD(T)
 CCSD(T)= -0.29997571106D+03

 The electronic state is 6-SGG.
 Alpha  occ. eigenvalues --  -20.43338 -20.43337 -20.39075 -20.39060  -1.32577
 Alpha  occ. eigenvalues --   -1.29597  -1.03146  -0.89658  -0.55971  -0.48599
 Alpha  occ. eigenvalues --   -0.48599  -0.45808  -0.45808  -0.34683  -0.30045
 Alpha  occ. eigenvalues --   -0.30045  -0.22130  -0.22130   0.13167
 Alpha virt. eigenvalues --    0.55572   0.85320   0.87844   0.93590   0.93590
 Alpha virt. eigenvalues --    0.95109   0.95109   1.01668   1.01668   1.12453
 Alpha virt. eigenvalues --    1.12555   1.20434   1.20434   1.28844   1.65202

 Mulliken charges and spin densities:
               1          2
     1  O   -0.232998   1.020482
     2  O   -0.267002   1.479518
     3  O   -0.267002   1.479518
     4  O   -0.232998   1.020482
 Sum of Mulliken charges =  -1.00000   5.00000

 Dipole moment (field-independent basis, Debye):
    X=             -0.0000    Y=              0.0000    Z=              0.0000  Tot=              0.0000
 Quadrupole moment (field-independent basis, Debye-Ang):
   XX=            -22.0458   YY=            -22.0458   ZZ=            -40.2971
   XY=             -0.0000   XZ=              0.0000   YZ=             -0.0000

 SDQ=-299.9322425\CCSD=-299.9212189\CCSD(T)=-299.9757111\RMSD=3.037e-09
 Normal termination of Gaussian 16 at Sat Jan 14 23:14:58 2023.
