 Gaussian 16, Revision A.03,
 Gaussian 16:  ES64L-G16RevA.03 25-Dec-2016

 ---------------------------------------------------------------
 #p ROCCSD(T)/cc-pVTZ Guess=Read SCF=(VeryTight,CDIIS,VShift=10)
 ---------------------------------------------------------------

 ---------
 O2_O2_228
 ---------
 Symbolic Z-matrix:
 Charge = -1 Multiplicity = 6

                         Standard orientation:
 ---------------------------------------------------------------------
 Center     Atomic      Atomic             Coordinates (Angstroms)
 Number     Number       Type             X           Y           Z
 ---------------------------------------------------------------------
      1          8           0        0.000000    0.000000    2.406654
      2          8           0        0.000000    0.000000    3.759034
      3          8           0        0.000000    0.000000   -3.759034
      4          8           0        0.000000    0.000000   -2.406654
 ---------------------------------------------------------------------

 SCF Done:  E(ROHF) =  -298.984226116     A.U. after   11 cycles
 E2 =    -0.1077717893D+01 EUMP2 =    -0.30006194400975D+03
 CCSD(T)
 CCSD(T)= -0.30003225130D+03

 The electronic state is 6-SGG.
 Alpha  occ. eigenvalues --  -20.50476 -20.50476 -20.48246 -20.48246  -1.36575
 Alpha  occ. eigenvalues --   -1.36574  -1.00647  -1.00463  -0.52745  -0.52745
 Alpha  occ. eigenvalues --   -0.52743  -0.52743  -0.51993  -0.51701  -0.32810
 Alpha  occ. eigenvalues --   -0.32810  -0.32807  -0.32807   0.19182
 Alpha virt. eigenvalues --    0.28469   0.84502   0.86342   0.89819   0.89819
 Alpha virt. eigenvalues --    0.89859   0.89859   0.94032   0.95337   0.99103
 Alpha virt. eigenvalues --    0.99103   0.99210   0.99210   1.10174   1.10177

 Mulliken charges and spin densities:
               1          2
     1  O   -0.195773   1.313309
     2  O   -0.304227   1.186691
     3  O   -0.304227   1.186691
     4  O   -0.195773   1.313309
 Sum of Mulliken charges =  -1.00000   5.00000

 Dipole moment (field-independent basis, Debye):
    X=             -0.0000    Y=              0.0000    Z=             -0.0000  Tot=              0.0000
 Quadrupole moment (field-independent basis, Debye-Ang):
   XX=            -22.1671   YY=            -22.1671   ZZ=            -77.5426
   XY=             -0.0000   XZ=              0.0000   YZ=             -0.0000

 SDQ=-299.9924804\CCSD=-299.9800098\CCSD(T)=-300.0322513\RMSD=1.035e-09
 Normal termination of Gaussian 16 at Mon Jan 16 04:04:51 2023.
