 Gaussian 16, Revision A.03,
 Gaussian 16:  ES64L-G16RevA.03 25-Dec-2016

 ---------------------------------------------------------------
 #p ROCCSD(T)/cc-pVTZ Guess=Read SCF=(VeryTight,CDIIS,VShift=10)
 ---------------------------------------------------------------

 ---------
 O2_O2_105
 ---------
 Symbolic Z-matrix:
 Charge = -1 Multiplicity = 6

                         Standard orientation:
 ---------------------------------------------------------------------
 Center     Atomic      Atomic             Coordinates (Angstroms)
 Number     Number       Type             X           Y           Z
 ---------------------------------------------------------------------
      1          8           0        0.000000    0.000000    1.535901
      2          8           0        0.000000    0.000000    2.888281
      3          8           0        0.000000    0.000000   -2.888281
      4          8           0        0.000000    0.000000   -1.535901
 ---------------------------------------------------------------------

 SCF Done:  E(ROHF) =  -299.007855821     A.U. after   14 cycles
 E2 =    -0.1073617065D+01 EUMP2 =    -0.30008147288632D+03
 CCSD(T)
 CCSD(T)= -0.30005537566D+03

 The electronic state is 6-SGG.
 Alpha  occ. eigenvalues --  -20.50812 -20.50810 -20.45993 -20.45992  -1.35356
 Alpha  occ. eigenvalues --   -1.35292  -0.99302  -0.98750  -0.51741  -0.51741
 Alpha  occ. eigenvalues --   -0.51590  -0.51590  -0.50801  -0.48728  -0.31461
 Alpha  occ. eigenvalues --   -0.31461  -0.31241  -0.31241   0.16989
 Alpha virt. eigenvalues --    0.36022   0.80355   0.89528   0.89528   0.89700
 Alpha virt. eigenvalues --    0.92275   0.92312   0.92312   0.98324   0.98324
 Alpha virt. eigenvalues --    1.04398   1.04398   1.11342   1.11680   1.28478

 Mulliken charges and spin densities:
               1          2
     1  O   -0.155093   1.375305
     2  O   -0.344907   1.124695
     3  O   -0.344907   1.124695
     4  O   -0.155093   1.375305
 Sum of Mulliken charges =  -1.00000   5.00000

 Dipole moment (field-independent basis, Debye):
    X=             -0.0000    Y=              0.0000    Z=              0.0000  Tot=              0.0000
 Quadrupole moment (field-independent basis, Debye-Ang):
   XX=            -22.1978   YY=            -22.1978   ZZ=            -55.2185
   XY=             -0.0000   XZ=              0.0000   YZ=             -0.0000

 29\MP4SDQ=-300.0172291\CCSD=-300.0031504\CCSD(T)=-300.0553757\RMSD=2.2
 Normal termination of Gaussian 16 at Sun Jan 15 03:41:44 2023.
