 Gaussian 16, Revision A.03,
 Gaussian 16:  ES64L-G16RevA.03 25-Dec-2016

 ---------------------------------------------------------------
 #p ROCCSD(T)/cc-pVTZ Guess=Read SCF=(VeryTight,CDIIS,VShift=10)
 ---------------------------------------------------------------

 ---------
 O2_O2_239
 ---------
 Symbolic Z-matrix:
 Charge = -1 Multiplicity = 6

                         Standard orientation:
 ---------------------------------------------------------------------
 Center     Atomic      Atomic             Coordinates (Angstroms)
 Number     Number       Type             X           Y           Z
 ---------------------------------------------------------------------
      1          8           0        0.000000    0.000000    2.484526
      2          8           0        0.000000    0.000000    3.836906
      3          8           0        0.000000    0.000000   -3.836906
      4          8           0        0.000000    0.000000   -2.484526
 ---------------------------------------------------------------------

 SCF Done:  E(ROHF) =  -298.983595156     A.U. after   12 cycles
 E2 =    -0.1077960058D+01 EUMP2 =    -0.30006155521480D+03
 CCSD(T)
 CCSD(T)= -0.30003165921D+03

 The electronic state is 6-SGG.
 Alpha  occ. eigenvalues --  -20.50496 -20.50496 -20.48375 -20.48375  -1.36661
 Alpha  occ. eigenvalues --   -1.36659  -1.00741  -1.00559  -0.52824  -0.52824
 Alpha  occ. eigenvalues --   -0.52822  -0.52822  -0.52091  -0.51829  -0.32901
 Alpha  occ. eigenvalues --   -0.32901  -0.32899  -0.32899   0.19231
 Alpha virt. eigenvalues --    0.28147   0.84698   0.85934   0.89734   0.89734
 Alpha virt. eigenvalues --    0.89759   0.89759   0.94089   0.94989   0.99021
 Alpha virt. eigenvalues --    0.99021   0.99090   0.99090   1.10082   1.10086

 Mulliken charges and spin densities:
               1          2
     1  O   -0.198038   1.310513
     2  O   -0.301962   1.189487
     3  O   -0.301962   1.189487
     4  O   -0.198038   1.310513
 Sum of Mulliken charges =  -1.00000   5.00000

 Dipole moment (field-independent basis, Debye):
    X=             -0.0000    Y=              0.0000    Z=             -0.0000  Tot=              0.0000
 Quadrupole moment (field-independent basis, Debye-Ang):
   XX=            -22.1656   YY=            -22.1656   ZZ=            -79.8290
   XY=             -0.0000   XZ=              0.0000   YZ=             -0.0000

 P4SDQ=-299.991828\CCSD=-299.9794071\CCSD(T)=-300.0316592\RMSD=6.332e-0
 Normal termination of Gaussian 16 at Mon Jan 16 04:17:44 2023.
