 Gaussian 16, Revision A.03,
 Gaussian 16:  ES64L-G16RevA.03 25-Dec-2016

 ---------------------------------------------------------------
 #p ROCCSD(T)/cc-pVTZ Guess=Read SCF=(VeryTight,CDIIS,VShift=10)
 ---------------------------------------------------------------

 ---------
 O2_O2_110
 ---------
 Symbolic Z-matrix:
 Charge = -1 Multiplicity = 6

                         Standard orientation:
 ---------------------------------------------------------------------
 Center     Atomic      Atomic             Coordinates (Angstroms)
 Number     Number       Type             X           Y           Z
 ---------------------------------------------------------------------
      1          8           0        0.000000    0.000000    1.571298
      2          8           0        0.000000    0.000000    2.923678
      3          8           0        0.000000    0.000000   -2.923678
      4          8           0        0.000000    0.000000   -1.571298
 ---------------------------------------------------------------------

 SCF Done:  E(ROHF) =  -299.007279549     A.U. after    9 cycles
 E2 =    -0.1073554495D+01 EUMP2 =    -0.30008083404410D+03
 CCSD(T)
 CCSD(T)= -0.30005466057D+03

 The electronic state is 6-SGG.
 Alpha  occ. eigenvalues --  -20.50937 -20.50936 -20.46177 -20.46177  -1.35480
 Alpha  occ. eigenvalues --   -1.35426  -0.99402  -0.98911  -0.51865  -0.51865
 Alpha  occ. eigenvalues --   -0.51738  -0.51738  -0.50826  -0.48953  -0.31588
 Alpha  occ. eigenvalues --   -0.31588  -0.31399  -0.31399   0.17096
 Alpha virt. eigenvalues --    0.35662   0.79534   0.89629   0.89629   0.89782
 Alpha virt. eigenvalues --    0.92115   0.92115   0.92275   0.98411   0.98411
 Alpha virt. eigenvalues --    1.03859   1.03859   1.11254   1.11557   1.25721

 Mulliken charges and spin densities:
               1          2
     1  O   -0.157062   1.375159
     2  O   -0.342938   1.124841
     3  O   -0.342938   1.124841
     4  O   -0.157062   1.375159
 Sum of Mulliken charges =  -1.00000   5.00000

 Dipole moment (field-independent basis, Debye):
    X=             -0.0000    Y=              0.0000    Z=              0.0000  Tot=              0.0000
 Quadrupole moment (field-independent basis, Debye-Ang):
   XX=            -22.1982   YY=            -22.1982   ZZ=            -55.9255
   XY=             -0.0000   XZ=              0.0000   YZ=             -0.0000

 \MP4SDQ=-300.0165302\CCSD=-300.0024749\CCSD(T)=-300.0546606\RMSD=7.727
 Normal termination of Gaussian 16 at Sun Jan 15 03:54:17 2023.
