 Gaussian 16, Revision A.03,
 Gaussian 16:  ES64L-G16RevA.03 25-Dec-2016

 ---------------------------------------------------------------
 #p ROCCSD(T)/cc-pVTZ Guess=Read SCF=(VeryTight,CDIIS,VShift=10)
 ---------------------------------------------------------------

 ---------
 O2_O2_288
 ---------
 Symbolic Z-matrix:
 Charge = -1 Multiplicity = 6

                         Standard orientation:
 ---------------------------------------------------------------------
 Center     Atomic      Atomic             Coordinates (Angstroms)
 Number     Number       Type             X           Y           Z
 ---------------------------------------------------------------------
      1          8           0        0.000000    0.000000    2.831412
      2          8           0        0.000000    0.000000    4.183792
      3          8           0        0.000000    0.000000   -4.183792
      4          8           0        0.000000    0.000000   -2.831412
 ---------------------------------------------------------------------

 SCF Done:  E(ROHF) =  -298.982428506     A.U. after   13 cycles
 E2 =    -0.1078776533D+01 EUMP2 =    -0.30006120503876D+03
 CCSD(T)
 CCSD(T)= -0.30003054489D+03

 The electronic state is 6-SGG.
 Alpha  occ. eigenvalues --  -20.50672 -20.50671 -20.48940 -20.48940  -1.37043
 Alpha  occ. eigenvalues --   -1.37042  -1.01149  -1.00970  -0.53187  -0.53187
 Alpha  occ. eigenvalues --   -0.53187  -0.53187  -0.52488  -0.52312  -0.33309
 Alpha  occ. eigenvalues --   -0.33309  -0.33309  -0.33309   0.19326
 Alpha virt. eigenvalues --    0.27070   0.84751   0.84914   0.89353   0.89353
 Alpha virt. eigenvalues --    0.89357   0.89357   0.93932   0.94173   0.98630
 Alpha virt. eigenvalues --    0.98630   0.98646   0.98646   1.09694   1.09696

 Mulliken charges and spin densities:
               1          2
     1  O   -0.207112   1.299908
     2  O   -0.292888   1.200092
     3  O   -0.292888   1.200092
     4  O   -0.207112   1.299908
 Sum of Mulliken charges =  -1.00000   5.00000

 Dipole moment (field-independent basis, Debye):
    X=             -0.0000    Y=              0.0000    Z=              0.0000  Tot=              0.0000
 Quadrupole moment (field-independent basis, Debye-Ang):
   XX=            -22.1619   YY=            -22.1619   ZZ=            -90.6265
   XY=             -0.0000   XZ=              0.0000   YZ=             -0.0000

 SDQ=-299.9905823\CCSD=-299.9782742\CCSD(T)=-300.0305449\RMSD=9.964e-09
 Normal termination of Gaussian 16 at Mon Jan 16 05:16:17 2023.
