 Gaussian 16, Revision A.03,
 Gaussian 16:  ES64L-G16RevA.03 25-Dec-2016

 ---------------------------------------------------------------
 #p ROCCSD(T)/cc-pVTZ Guess=Read SCF=(VeryTight,CDIIS,VShift=10)
 ---------------------------------------------------------------

 --------
 O2_O2_72
 --------
 Symbolic Z-matrix:
 Charge = -1 Multiplicity = 6

                         Standard orientation:
 ---------------------------------------------------------------------
 Center     Atomic      Atomic             Coordinates (Angstroms)
 Number     Number       Type             X           Y           Z
 ---------------------------------------------------------------------
      1          8           0        0.000000    0.000000    1.302285
      2          8           0        0.000000    0.000000    2.654665
      3          8           0        0.000000    0.000000   -2.654665
      4          8           0        0.000000    0.000000   -1.302285
 ---------------------------------------------------------------------

 SCF Done:  E(ROHF) =  -299.008183284     A.U. after   19 cycles
 E2 =    -0.1075733341D+01 EUMP2 =    -0.30008391662497D+03
 CCSD(T)
 CCSD(T)= -0.30005733727D+03

 The electronic state is 6-SGG.
 Alpha  occ. eigenvalues --  -20.49253 -20.49251 -20.44780 -20.44779  -1.34358
 Alpha  occ. eigenvalues --   -1.34125  -0.98743  -0.97382  -0.51010  -0.50671
 Alpha  occ. eigenvalues --   -0.50671  -0.50217  -0.50217  -0.46824  -0.30563
 Alpha  occ. eigenvalues --   -0.30563  -0.29933  -0.29933   0.16353
 Alpha virt. eigenvalues --    0.38472   0.88808   0.88842   0.88842   0.90824
 Alpha virt. eigenvalues --    0.92085   0.93625   0.93625   0.97969   0.97969
 Alpha virt. eigenvalues --    1.08905   1.08905   1.11962   1.12614   1.46508

 Mulliken charges and spin densities:
               1          2
     1  O   -0.147257   1.349790
     2  O   -0.352743   1.150210
     3  O   -0.352743   1.150210
     4  O   -0.147257   1.349790
 Sum of Mulliken charges =  -1.00000   5.00000

 Dipole moment (field-independent basis, Debye):
    X=             -0.0000    Y=              0.0000    Z=              0.0000  Tot=              0.0000
 Quadrupole moment (field-independent basis, Debye-Ang):
   XX=            -22.1966   YY=            -22.1966   ZZ=            -50.8826
   XY=             -0.0000   XZ=              0.0000   YZ=             -0.0000

 6\MP4SDQ=-300.0187274\CCSD=-300.0047161\CCSD(T)=-300.0573373\RMSD=2.87
 Normal termination of Gaussian 16 at Sun Jan 15 02:16:00 2023.
