 Gaussian 16, Revision A.03,
 Gaussian 16:  ES64L-G16RevA.03 25-Dec-2016

 ---------------------------------------------------------------
 #p ROCCSD(T)/cc-pVTZ Guess=Read SCF=(VeryTight,CDIIS,VShift=10)
 ---------------------------------------------------------------

 --------
 O2_O2_44
 --------
 Symbolic Z-matrix:
 Charge = -1 Multiplicity = 6

                         Standard orientation:
 ---------------------------------------------------------------------
 Center     Atomic      Atomic             Coordinates (Angstroms)
 Number     Number       Type             X           Y           Z
 ---------------------------------------------------------------------
      1          8           0        0.000000    0.000000    1.104065
      2          8           0        0.000000    0.000000    2.456445
      3          8           0        0.000000    0.000000   -2.456445
      4          8           0        0.000000    0.000000   -1.104065
 ---------------------------------------------------------------------

 SCF Done:  E(ROHF) =  -299.000436062     A.U. after   14 cycles
 E2 =    -0.1079611549D+01 EUMP2 =    -0.30008004761093D+03
 CCSD(T)
 CCSD(T)= -0.30005228279D+03

 The electronic state is 6-SGG.
 Alpha  occ. eigenvalues --  -20.46822 -20.46818 -20.44021 -20.44020  -1.33433
 Alpha  occ. eigenvalues --   -1.32744  -0.98900  -0.95575  -0.52059  -0.49626
 Alpha  occ. eigenvalues --   -0.49626  -0.48548  -0.48548  -0.44087  -0.29979
 Alpha  occ. eigenvalues --   -0.29979  -0.28341  -0.28341   0.15711
 Alpha virt. eigenvalues --    0.41687   0.87735   0.89443   0.89443   0.90888
 Alpha virt. eigenvalues --    0.94502   0.94502   0.98152   0.98152   1.06353
 Alpha virt. eigenvalues --    1.12412   1.13462   1.13462   1.13742   1.58511

 Mulliken charges and spin densities:
               1          2
     1  O   -0.153829   1.283535
     2  O   -0.346171   1.216465
     3  O   -0.346171   1.216465
     4  O   -0.153829   1.283535
 Sum of Mulliken charges =  -1.00000   5.00000

 Dipole moment (field-independent basis, Debye):
    X=             -0.0000    Y=              0.0000    Z=              0.0000  Tot=              0.0000
 Quadrupole moment (field-independent basis, Debye-Ang):
   XX=            -22.1923   YY=            -22.1923   ZZ=            -47.1265
   XY=             -0.0000   XZ=              0.0000   YZ=             -0.0000

 6\MP4SDQ=-300.0129632\CCSD=-299.9990969\CCSD(T)=-300.0522828\RMSD=5.28
 Normal termination of Gaussian 16 at Sun Jan 15 01:01:24 2023.
