 Gaussian 16, Revision A.03,
 Gaussian 16:  ES64L-G16RevA.03 25-Dec-2016

 ---------------------------------------------------------------
 #p ROCCSD(T)/cc-pVTZ Guess=Read SCF=(VeryTight,CDIIS,VShift=10)
 ---------------------------------------------------------------

 --------
 O2_O2_56
 --------
 Symbolic Z-matrix:
 Charge = -1 Multiplicity = 6

                         Standard orientation:
 ---------------------------------------------------------------------
 Center     Atomic      Atomic             Coordinates (Angstroms)
 Number     Number       Type             X           Y           Z
 ---------------------------------------------------------------------
      1          8           0        0.000000    0.000000    1.189016
      2          8           0        0.000000    0.000000    2.541396
      3          8           0        0.000000    0.000000   -2.541396
      4          8           0        0.000000    0.000000   -1.189016
 ---------------------------------------------------------------------

 SCF Done:  E(ROHF) =  -299.005402984     A.U. after   14 cycles
 E2 =    -0.1077799731D+01 EUMP2 =    -0.30008320271427D+03
 CCSD(T)
 CCSD(T)= -0.30005588692D+03

 The electronic state is 6-SGG.
 Alpha  occ. eigenvalues --  -20.48035 -20.48033 -20.44297 -20.44297  -1.33829
 Alpha  occ. eigenvalues --   -1.33394  -0.98708  -0.96463  -0.51479  -0.50079
 Alpha  occ. eigenvalues --   -0.50079  -0.49325  -0.49325  -0.45460  -0.30192
 Alpha  occ. eigenvalues --   -0.30192  -0.29115  -0.29115   0.16018
 Alpha virt. eigenvalues --    0.40058   0.88246   0.88917   0.88917   0.91476
 Alpha virt. eigenvalues --    0.94166   0.94166   0.98005   0.98005   0.99266
 Alpha virt. eigenvalues --    1.11479   1.11479   1.12234   1.13132   1.53784

 Mulliken charges and spin densities:
               1          2
     1  O   -0.148491   1.318745
     2  O   -0.351509   1.181255
     3  O   -0.351509   1.181255
     4  O   -0.148491   1.318745
 Sum of Mulliken charges =  -1.00000   5.00000

 Dipole moment (field-independent basis, Debye):
    X=             -0.0000    Y=              0.0000    Z=              0.0000  Tot=              0.0000
 Quadrupole moment (field-independent basis, Debye-Ang):
   XX=            -22.1967   YY=            -22.1967   ZZ=            -48.7977
   XY=             -0.0000   XZ=              0.0000   YZ=             -0.0000

 MP4SDQ=-300.0169136\CCSD=-300.0029796\CCSD(T)=-300.0558869\RMSD=4.198e
 Normal termination of Gaussian 16 at Sun Jan 15 01:32:22 2023.
