 Gaussian 16, Revision A.03,
 Gaussian 16:  ES64L-G16RevA.03 25-Dec-2016

 ---------------------------------------------------------------
 #p ROCCSD(T)/cc-pVTZ Guess=Read SCF=(VeryTight,CDIIS,VShift=10)
 ---------------------------------------------------------------

 ---------
 O2_O2_201
 ---------
 Symbolic Z-matrix:
 Charge = -1 Multiplicity = 6

                         Standard orientation:
 ---------------------------------------------------------------------
 Center     Atomic      Atomic             Coordinates (Angstroms)
 Number     Number       Type             X           Y           Z
 ---------------------------------------------------------------------
      1          8           0        0.000000    0.000000    2.215513
      2          8           0        0.000000    0.000000    3.567893
      3          8           0        0.000000    0.000000   -3.567893
      4          8           0        0.000000    0.000000   -2.215513
 ---------------------------------------------------------------------

 SCF Done:  E(ROHF) =  -298.986929643     A.U. after   12 cycles
 E2 =    -0.1076978083D+01 EUMP2 =    -0.30006390772623D+03
 CCSD(T)
 CCSD(T)= -0.30003477750D+03

 The electronic state is 6-SGG.
 Alpha  occ. eigenvalues --  -20.50503 -20.50502 -20.47943 -20.47943  -1.36381
 Alpha  occ. eigenvalues --   -1.36378  -1.00424  -1.00231  -0.52578  -0.52578
 Alpha  occ. eigenvalues --   -0.52573  -0.52573  -0.51743  -0.51341  -0.32604
 Alpha  occ. eigenvalues --   -0.32604  -0.32594  -0.32594   0.18977
 Alpha virt. eigenvalues --    0.29475   0.83399   0.87678   0.90002   0.90002
 Alpha virt. eigenvalues --    0.90127   0.90127   0.93646   0.96939   0.99259
 Alpha virt. eigenvalues --    0.99259   0.99570   0.99570   1.10394   1.10400

 Mulliken charges and spin densities:
               1          2
     1  O   -0.189864   1.321445
     2  O   -0.310136   1.178555
     3  O   -0.310136   1.178555
     4  O   -0.189864   1.321445
 Sum of Mulliken charges =  -1.00000   5.00000

 Dipole moment (field-independent basis, Debye):
    X=             -0.0000    Y=              0.0000    Z=             -0.0000  Tot=              0.0000
 Quadrupole moment (field-independent basis, Debye-Ang):
   XX=            -22.1732   YY=            -22.1732   ZZ=            -72.0993
   XY=             -0.0000   XZ=              0.0000   YZ=             -0.0000

 77\MP4SDQ=-299.9952502\CCSD=-299.9825806\CCSD(T)=-300.0347775\RMSD=9.0
 Normal termination of Gaussian 16 at Sun Jan 15 07:54:50 2023.
