 Gaussian 16, Revision A.03,
 Gaussian 16:  ES64L-G16RevA.03 25-Dec-2016

 ---------------------------------------------------------------
 #p ROCCSD(T)/cc-pVTZ Guess=Read SCF=(VeryTight,CDIIS,VShift=10)
 ---------------------------------------------------------------

 ---------
 O2_O2_127
 ---------
 Symbolic Z-matrix:
 Charge = -1 Multiplicity = 6

                         Standard orientation:
 ---------------------------------------------------------------------
 Center     Atomic      Atomic             Coordinates (Angstroms)
 Number     Number       Type             X           Y           Z
 ---------------------------------------------------------------------
      1          8           0        0.000000    0.000000    1.691645
      2          8           0        0.000000    0.000000    3.044026
      3          8           0        0.000000    0.000000   -3.044026
      4          8           0        0.000000    0.000000   -1.691645
 ---------------------------------------------------------------------

 SCF Done:  E(ROHF) =  -299.004258689     A.U. after   13 cycles
 E2 =    -0.1073799674D+01 EUMP2 =    -0.30007805836348D+03
 CCSD(T)
 CCSD(T)= -0.30005138692D+03

 The electronic state is 6-SGG.
 Alpha  occ. eigenvalues --  -20.51137 -20.51136 -20.46746 -20.46746  -1.35815
 Alpha  occ. eigenvalues --   -1.35787  -0.99711  -0.99361  -0.52182  -0.52182
 Alpha  occ. eigenvalues --   -0.52110  -0.52110  -0.50968  -0.49626  -0.31953
 Alpha  occ. eigenvalues --   -0.31953  -0.31841  -0.31841   0.17495
 Alpha virt. eigenvalues --    0.34379   0.78104   0.89895   0.89895   0.89918
 Alpha virt. eigenvalues --    0.91503   0.91503   0.92294   0.98721   0.98721
 Alpha virt. eigenvalues --    1.02339   1.02339   1.10991   1.11199   1.17007

 Mulliken charges and spin densities:
               1          2
     1  O   -0.164587   1.368127
     2  O   -0.335413   1.131873
     3  O   -0.335413   1.131873
     4  O   -0.164587   1.368127
 Sum of Mulliken charges =  -1.00000   5.00000

 Dipole moment (field-independent basis, Debye):
    X=             -0.0000    Y=              0.0000    Z=              0.0000  Tot=              0.0000
 Quadrupole moment (field-independent basis, Debye-Ang):
   XX=            -22.1980   YY=            -22.1980   ZZ=            -58.4962
   XY=             -0.0000   XZ=              0.0000   YZ=             -0.0000

 84\MP4SDQ=-300.0131747\CCSD=-299.9992916\CCSD(T)=-300.0513869\RMSD=5.0
 Normal termination of Gaussian 16 at Sun Jan 15 04:38:32 2023.
