 Gaussian 16, Revision A.03,
 Gaussian 16:  ES64L-G16RevA.03 25-Dec-2016

 ---------------------------------------------------------------
 #p ROCCSD(T)/cc-pVTZ Guess=Read SCF=(VeryTight,CDIIS,VShift=10)
 ---------------------------------------------------------------

 --------
 O2_O2_94
 --------
 Symbolic Z-matrix:
 Charge = -1 Multiplicity = 6

                         Standard orientation:
 ---------------------------------------------------------------------
 Center     Atomic      Atomic             Coordinates (Angstroms)
 Number     Number       Type             X           Y           Z
 ---------------------------------------------------------------------
      1          8           0        0.000000    0.000000    1.458029
      2          8           0        0.000000    0.000000    2.810409
      3          8           0        0.000000    0.000000   -2.810409
      4          8           0        0.000000    0.000000   -1.458029
 ---------------------------------------------------------------------

 SCF Done:  E(ROHF) =  -299.008630195     A.U. after   14 cycles
 E2 =    -0.1073996531D+01 EUMP2 =    -0.30008262672671D+03
 CCSD(T)
 CCSD(T)= -0.30005655754D+03

 The electronic state is 6-SGG.
 Alpha  occ. eigenvalues --  -20.50428 -20.50426 -20.45577 -20.45576  -1.35052
 Alpha  occ. eigenvalues --   -1.34953  -0.99083  -0.98355  -0.51424  -0.51424
 Alpha  occ. eigenvalues --   -0.51205  -0.51205  -0.50787  -0.48185  -0.31164
 Alpha  occ. eigenvalues --   -0.31164  -0.30853  -0.30853   0.16770
 Alpha virt. eigenvalues --    0.36799   0.82860   0.89279   0.89279   0.89461
 Alpha virt. eigenvalues --    0.92257   0.92759   0.92759   0.98155   0.98155
 Alpha virt. eigenvalues --    1.05729   1.05729   1.11547   1.11973   1.34676

 Mulliken charges and spin densities:
               1          2
     1  O   -0.151377   1.371987
     2  O   -0.348623   1.128013
     3  O   -0.348623   1.128013
     4  O   -0.151377   1.371987
 Sum of Mulliken charges =  -1.00000   5.00000

 Dipole moment (field-independent basis, Debye):
    X=             -0.0000    Y=              0.0000    Z=             -0.0000  Tot=              0.0000
 Quadrupole moment (field-independent basis, Debye-Ang):
   XX=            -22.1968   YY=            -22.1968   ZZ=            -53.7246
   XY=             -0.0000   XZ=              0.0000   YZ=             -0.0000

 7\MP4SDQ=-300.0183164\CCSD=-300.0042256\CCSD(T)=-300.0565575\RMSD=3.97
 Normal termination of Gaussian 16 at Sun Jan 15 03:13:52 2023.
