 Gaussian 16, Revision A.03,
 Gaussian 16:  ES64L-G16RevA.03 25-Dec-2016

 ---------------------------------------------------------------
 #p ROCCSD(T)/cc-pVTZ Guess=Read SCF=(VeryTight,CDIIS,VShift=10)
 ---------------------------------------------------------------

 --------
 O2_O2_18
 --------
 Symbolic Z-matrix:
 Charge = -1 Multiplicity = 6

                         Standard orientation:
 ---------------------------------------------------------------------
 Center     Atomic      Atomic             Coordinates (Angstroms)
 Number     Number       Type             X           Y           Z
 ---------------------------------------------------------------------
      1          8           0        0.000000    0.000000    0.920002
      2          8           0        0.000000    0.000000    2.272383
      3          8           0        0.000000    0.000000   -2.272383
      4          8           0        0.000000    0.000000   -0.920002
 ---------------------------------------------------------------------

 SCF Done:  E(ROHF) =  -298.968209770     A.U. after   11 cycles
 E2 =    -0.1078149751D+01 EUMP2 =    -0.30004635952141D+03
 CCSD(T)
 CCSD(T)= -0.30002373990D+03

 The electronic state is 6-SGG.
 Alpha  occ. eigenvalues --  -20.43698 -20.43698 -20.42617 -20.42609  -1.32666
 Alpha  occ. eigenvalues --   -1.30907  -1.00574  -0.92525  -0.54161  -0.48743
 Alpha  occ. eigenvalues --   -0.48743  -0.46678  -0.46678  -0.39264  -0.29795
 Alpha  occ. eigenvalues --   -0.29795  -0.25405  -0.25405   0.14582
 Alpha virt. eigenvalues --    0.48118   0.86156   0.89144   0.92192   0.92192
 Alpha virt. eigenvalues --    0.94964   0.94964   0.99371   0.99371   1.12631
 Alpha virt. eigenvalues --    1.12648   1.17878   1.17878   1.23111   1.66681

 Mulliken charges and spin densities:
               1          2
     1  O   -0.193372   1.145225
     2  O   -0.306628   1.354775
     3  O   -0.306628   1.354775
     4  O   -0.193372   1.145225
 Sum of Mulliken charges =  -1.00000   5.00000

 Dipole moment (field-independent basis, Debye):
    X=             -0.0000    Y=             -0.0000    Z=             -0.0000  Tot=              0.0000
 Quadrupole moment (field-independent basis, Debye-Ang):
   XX=            -22.1384   YY=            -22.1384   ZZ=            -42.8635
   XY=             -0.0000   XZ=              0.0000   YZ=             -0.0000

 MP4SDQ=-299.9827999\CCSD=-299.9697375\CCSD(T)=-300.0237399\RMSD=6.040e
 Normal termination of Gaussian 16 at Sat Jan 14 23:53:29 2023.
