 Gaussian 16, Revision A.03,
 Gaussian 16:  ES64L-G16RevA.03 25-Dec-2016

 ---------------------------------------------------------------
 #p ROCCSD(T)/cc-pVTZ Guess=Read SCF=(VeryTight,CDIIS,VShift=10)
 ---------------------------------------------------------------

 ---------
 O2_O2_295
 ---------
 Symbolic Z-matrix:
 Charge = -1 Multiplicity = 6

                         Standard orientation:
 ---------------------------------------------------------------------
 Center     Atomic      Atomic             Coordinates (Angstroms)
 Number     Number       Type             X           Y           Z
 ---------------------------------------------------------------------
      1          8           0        0.000000    0.000000    2.880967
      2          8           0        0.000000    0.000000    4.233347
      3          8           0        0.000000    0.000000   -4.233347
      4          8           0        0.000000    0.000000   -2.880967
 ---------------------------------------------------------------------

 SCF Done:  E(ROHF) =  -298.982371860     A.U. after   12 cycles
 E2 =    -0.1078869156D+01 EUMP2 =    -0.30006124101549D+03
 CCSD(T)
 CCSD(T)= -0.30003048822D+03

 The electronic state is 6-SGG.
 Alpha  occ. eigenvalues --  -20.50701 -20.50700 -20.49016 -20.49015  -1.37095
 Alpha  occ. eigenvalues --   -1.37094  -1.01203  -1.01024  -0.53237  -0.53237
 Alpha  occ. eigenvalues --   -0.53237  -0.53237  -0.52539  -0.52372  -0.33364
 Alpha  occ. eigenvalues --   -0.33364  -0.33364  -0.33364   0.19332
 Alpha virt. eigenvalues --    0.26947   0.84710   0.84831   0.89301   0.89301
 Alpha virt. eigenvalues --    0.89305   0.89305   0.93886   0.94099   0.98577
 Alpha virt. eigenvalues --    0.98577   0.98590   0.98590   1.09643   1.09644

 Mulliken charges and spin densities:
               1          2
     1  O   -0.208258   1.298592
     2  O   -0.291742   1.201408
     3  O   -0.291742   1.201408
     4  O   -0.208258   1.298592
 Sum of Mulliken charges =  -1.00000   5.00000

 Dipole moment (field-independent basis, Debye):
    X=             -0.0000    Y=              0.0000    Z=              0.0000  Tot=              0.0000
 Quadrupole moment (field-independent basis, Debye-Ang):
   XX=            -22.1617   YY=            -22.1617   ZZ=            -92.2594
   XY=             -0.0000   XZ=              0.0000   YZ=             -0.0000

 SDQ=-299.9905161\CCSD=-299.9782167\CCSD(T)=-300.0304882\RMSD=5.178e-09
 Normal termination of Gaussian 16 at Mon Jan 16 05:24:17 2023.
