 Gaussian 16, Revision A.03,
 Gaussian 16:  ES64L-G16RevA.03 25-Dec-2016

 ---------------------------------------------------------------
 #p ROCCSD(T)/cc-pVTZ Guess=Read SCF=(VeryTight,CDIIS,VShift=10)
 ---------------------------------------------------------------

 ---------
 O2_O2_230
 ---------
 Symbolic Z-matrix:
 Charge = -1 Multiplicity = 6

                         Standard orientation:
 ---------------------------------------------------------------------
 Center     Atomic      Atomic             Coordinates (Angstroms)
 Number     Number       Type             X           Y           Z
 ---------------------------------------------------------------------
      1          8           0        0.000000    0.000000    2.420813
      2          8           0        0.000000    0.000000    3.773193
      3          8           0        0.000000    0.000000   -3.773193
      4          8           0        0.000000    0.000000   -2.420813
 ---------------------------------------------------------------------

 SCF Done:  E(ROHF) =  -298.984095230     A.U. after   12 cycles
 E2 =    -0.1077764097D+01 EUMP2 =    -0.30006185932736D+03
 CCSD(T)
 CCSD(T)= -0.30003212867D+03

 The electronic state is 6-SGG.
 Alpha  occ. eigenvalues --  -20.50479 -20.50478 -20.48269 -20.48269  -1.36590
 Alpha  occ. eigenvalues --   -1.36589  -1.00664  -1.00480  -0.52759  -0.52759
 Alpha  occ. eigenvalues --   -0.52757  -0.52757  -0.52011  -0.51724  -0.32827
 Alpha  occ. eigenvalues --   -0.32827  -0.32824  -0.32824   0.19192
 Alpha virt. eigenvalues --    0.28408   0.84547   0.86261   0.89803   0.89803
 Alpha virt. eigenvalues --    0.89840   0.89840   0.94047   0.95265   0.99089
 Alpha virt. eigenvalues --    0.99089   0.99188   0.99188   1.10157   1.10161

 Mulliken charges and spin densities:
               1          2
     1  O   -0.196190   1.312785
     2  O   -0.303810   1.187215
     3  O   -0.303810   1.187215
     4  O   -0.196190   1.312785
 Sum of Mulliken charges =  -1.00000   5.00000

 Dipole moment (field-independent basis, Debye):
    X=             -0.0000    Y=              0.0000    Z=              0.0000  Tot=              0.0000
 Quadrupole moment (field-independent basis, Debye-Ang):
   XX=            -22.1668   YY=            -22.1668   ZZ=            -77.9550
   XY=             -0.0000   XZ=              0.0000   YZ=             -0.0000

 P4SDQ=-299.9923455\CCSD=-299.9798849\CCSD(T)=-300.0321287\RMSD=7.573e-
 Normal termination of Gaussian 16 at Mon Jan 16 04:07:11 2023.
