 Gaussian 16, Revision A.03,
 Gaussian 16:  ES64L-G16RevA.03 25-Dec-2016

 ---------------------------------------------------------------
 #p ROCCSD(T)/cc-pVTZ Guess=Read SCF=(VeryTight,CDIIS,VShift=10)
 ---------------------------------------------------------------

 ---------
 O2_O2_269
 ---------
 Symbolic Z-matrix:
 Charge = -1 Multiplicity = 6

                         Standard orientation:
 ---------------------------------------------------------------------
 Center     Atomic      Atomic             Coordinates (Angstroms)
 Number     Number       Type             X           Y           Z
 ---------------------------------------------------------------------
      1          8           0        0.000000    0.000000    2.696905
      2          8           0        0.000000    0.000000    4.049285
      3          8           0        0.000000    0.000000   -4.049285
      4          8           0        0.000000    0.000000   -2.696905
 ---------------------------------------------------------------------

 SCF Done:  E(ROHF) =  -298.982674120     A.U. after   10 cycles
 E2 =    -0.1078499845D+01 EUMP2 =    -0.30006117396551D+03
 CCSD(T)
 CCSD(T)= -0.30003078492D+03

 The electronic state is 6-SGG.
 Alpha  occ. eigenvalues --  -20.50595 -20.50594 -20.48726 -20.48726  -1.36898
 Alpha  occ. eigenvalues --   -1.36897  -1.00995  -1.00816  -0.53047  -0.53047
 Alpha  occ. eigenvalues --   -0.53047  -0.53047  -0.52341  -0.52139  -0.33154
 Alpha  occ. eigenvalues --   -0.33154  -0.33154  -0.33154   0.19305
 Alpha virt. eigenvalues --    0.27435   0.84826   0.85197   0.89498   0.89498
 Alpha virt. eigenvalues --    0.89505   0.89505   0.94041   0.94408   0.98780
 Alpha virt. eigenvalues --    0.98780   0.98805   0.98805   1.09840   1.09842

 Mulliken charges and spin densities:
               1          2
     1  O   -0.203807   1.303719
     2  O   -0.296193   1.196281
     3  O   -0.296193   1.196281
     4  O   -0.203807   1.303719
 Sum of Mulliken charges =  -1.00000   5.00000

 Dipole moment (field-independent basis, Debye):
    X=             -0.0000    Y=              0.0000    Z=             -0.0000  Tot=              0.0000
 Quadrupole moment (field-independent basis, Debye-Ang):
   XX=            -22.1629   YY=            -22.1629   ZZ=            -86.3121
   XY=             -0.0000   XZ=              0.0000   YZ=             -0.0000

 299.990856\CCSD=-299.9785179\CCSD(T)=-300.0307849\RMSD=7.720e-09\PG=D*
 Normal termination of Gaussian 16 at Mon Jan 16 04:52:53 2023.
