 Gaussian 16, Revision A.03,
 Gaussian 16:  ES64L-G16RevA.03 25-Dec-2016

 ---------------------------------------------------------------
 #p ROCCSD(T)/cc-pVTZ Guess=Read SCF=(VeryTight,CDIIS,VShift=10)
 ---------------------------------------------------------------

 ---------
 O2_O2_200
 ---------
 Symbolic Z-matrix:
 Charge = -1 Multiplicity = 6

                         Standard orientation:
 ---------------------------------------------------------------------
 Center     Atomic      Atomic             Coordinates (Angstroms)
 Number     Number       Type             X           Y           Z
 ---------------------------------------------------------------------
      1          8           0        0.000000    0.000000    2.208433
      2          8           0        0.000000    0.000000    3.560814
      3          8           0        0.000000    0.000000   -3.560814
      4          8           0        0.000000    0.000000   -2.208433
 ---------------------------------------------------------------------

 SCF Done:  E(ROHF) =  -298.987070000     A.U. after   12 cycles
 E2 =    -0.1076945888D+01 EUMP2 =    -0.30006401588782D+03
 CCSD(T)
 CCSD(T)= -0.30003490864D+03

 The electronic state is 6-SGG.
 Alpha  occ. eigenvalues --  -20.50506 -20.50506 -20.47933 -20.47932  -1.36374
 Alpha  occ. eigenvalues --   -1.36372  -1.00416  -1.00223  -0.52572  -0.52572
 Alpha  occ. eigenvalues --   -0.52567  -0.52567  -0.51733  -0.51326  -0.32597
 Alpha  occ. eigenvalues --   -0.32597  -0.32587  -0.32587   0.18966
 Alpha virt. eigenvalues --    0.29520   0.83336   0.87734   0.90008   0.90008
 Alpha virt. eigenvalues --    0.90138   0.90138   0.93625   0.97031   0.99262
 Alpha virt. eigenvalues --    0.99262   0.99586   0.99586   1.10402   1.10408

 Mulliken charges and spin densities:
               1          2
     1  O   -0.189633   1.321800
     2  O   -0.310367   1.178200
     3  O   -0.310367   1.178200
     4  O   -0.189633   1.321800
 Sum of Mulliken charges =  -1.00000   5.00000

 Dipole moment (field-independent basis, Debye):
    X=             -0.0000    Y=              0.0000    Z=             -0.0000  Tot=              0.0000
 Quadrupole moment (field-independent basis, Debye-Ang):
   XX=            -22.1735   YY=            -22.1735   ZZ=            -71.9017
   XY=             -0.0000   XZ=              0.0000   YZ=             -0.0000

 P4SDQ=-299.9953936\CCSD=-299.982714\CCSD(T)=-300.0349086\RMSD=8.738e-0
 Normal termination of Gaussian 16 at Sun Jan 15 07:52:17 2023.
