 Gaussian 16, Revision A.03,
 Gaussian 16:  ES64L-G16RevA.03 25-Dec-2016

 ---------------------------------------------------------------
 #p ROCCSD(T)/cc-pVTZ Guess=Read SCF=(VeryTight,CDIIS,VShift=10)
 ---------------------------------------------------------------

 ---------
 O2_O2_290
 ---------
 Symbolic Z-matrix:
 Charge = -1 Multiplicity = 6

                         Standard orientation:
 ---------------------------------------------------------------------
 Center     Atomic      Atomic             Coordinates (Angstroms)
 Number     Number       Type             X           Y           Z
 ---------------------------------------------------------------------
      1          8           0        0.000000    0.000000    2.845570
      2          8           0        0.000000    0.000000    4.197950
      3          8           0        0.000000    0.000000   -4.197950
      4          8           0        0.000000    0.000000   -2.845570
 ---------------------------------------------------------------------

 SCF Done:  E(ROHF) =  -298.982410907     A.U. after   12 cycles
 E2 =    -0.1078803425D+01 EUMP2 =    -0.30006121433143D+03
 CCSD(T)
 CCSD(T)= -0.30003052736D+03

 The electronic state is 6-SGG.
 Alpha  occ. eigenvalues --  -20.50680 -20.50679 -20.48962 -20.48961  -1.37058
 Alpha  occ. eigenvalues --   -1.37057  -1.01164  -1.00986  -0.53201  -0.53201
 Alpha  occ. eigenvalues --   -0.53201  -0.53201  -0.52503  -0.52330  -0.33325
 Alpha  occ. eigenvalues --   -0.33325  -0.33325  -0.33325   0.19328
 Alpha virt. eigenvalues --    0.27034   0.84740   0.84890   0.89338   0.89338
 Alpha virt. eigenvalues --    0.89342   0.89342   0.93919   0.94151   0.98615
 Alpha virt. eigenvalues --    0.98615   0.98630   0.98630   1.09679   1.09681

 Mulliken charges and spin densities:
               1          2
     1  O   -0.207443   1.299528
     2  O   -0.292557   1.200472
     3  O   -0.292557   1.200472
     4  O   -0.207443   1.299528
 Sum of Mulliken charges =  -1.00000   5.00000

 Dipole moment (field-independent basis, Debye):
    X=             -0.0000    Y=              0.0000    Z=              0.0000  Tot=              0.0000
 Quadrupole moment (field-independent basis, Debye-Ang):
   XX=            -22.1618   YY=            -22.1618   ZZ=            -91.0906
   XY=             -0.0000   XZ=              0.0000   YZ=             -0.0000

 SDQ=-299.990562\CCSD=-299.9782564\CCSD(T)=-300.0305274\RMSD=4.330e-09\
 Normal termination of Gaussian 16 at Mon Jan 16 05:18:34 2023.
