 Gaussian 16, Revision A.03,
 Gaussian 16:  ES64L-G16RevA.03 25-Dec-2016

 ---------------------------------------------------------------
 #p ROCCSD(T)/cc-pVTZ Guess=Read SCF=(VeryTight,CDIIS,VShift=10)
 ---------------------------------------------------------------

 --------
 O2_O2_60
 --------
 Symbolic Z-matrix:
 Charge = -1 Multiplicity = 6

                         Standard orientation:
 ---------------------------------------------------------------------
 Center     Atomic      Atomic             Coordinates (Angstroms)
 Number     Number       Type             X           Y           Z
 ---------------------------------------------------------------------
      1          8           0        0.000000    0.000000    1.217333
      2          8           0        0.000000    0.000000    2.569713
      3          8           0        0.000000    0.000000   -2.569713
      4          8           0        0.000000    0.000000   -1.217333
 ---------------------------------------------------------------------

 SCF Done:  E(ROHF) =  -299.006402251     A.U. after   14 cycles
 E2 =    -0.1077224634D+01 EUMP2 =    -0.30008362688476D+03
 CCSD(T)
 CCSD(T)= -0.30005650795D+03

 The electronic state is 6-SGG.
 Alpha  occ. eigenvalues --  -20.48376 -20.48373 -20.44407 -20.44407  -1.33962
 Alpha  occ. eigenvalues --   -1.33589  -0.98691  -0.96716  -0.51332  -0.50229
 Alpha  occ. eigenvalues --   -0.50229  -0.49563  -0.49563  -0.45843  -0.30276
 Alpha  occ. eigenvalues --   -0.30276  -0.29337  -0.29337   0.16107
 Alpha virt. eigenvalues --    0.39613   0.88395   0.88842   0.88842   0.91627
 Alpha virt. eigenvalues --    0.94040   0.94040   0.97017   0.97981   0.97981
 Alpha virt. eigenvalues --    1.10825   1.10825   1.12170   1.12992   1.52079

 Mulliken charges and spin densities:
               1          2
     1  O   -0.147703   1.327946
     2  O   -0.352297   1.172054
     3  O   -0.352297   1.172054
     4  O   -0.147703   1.327946
 Sum of Mulliken charges =  -1.00000   5.00000

 Dipole moment (field-independent basis, Debye):
    X=             -0.0000    Y=              0.0000    Z=              0.0000  Tot=              0.0000
 Quadrupole moment (field-independent basis, Debye-Ang):
   XX=            -22.1970   YY=            -22.1970   ZZ=            -49.3292
   XY=             -0.0000   XZ=              0.0000   YZ=             -0.0000

 9\MP4SDQ=-300.0176326\CCSD=-300.0036799\CCSD(T)=-300.0565079\RMSD=3.26
 Normal termination of Gaussian 16 at Sun Jan 15 01:42:37 2023.
