 Gaussian 16, Revision A.03,
 Gaussian 16:  ES64L-G16RevA.03 25-Dec-2016

 ---------------------------------------------------------------
 #p ROCCSD(T)/cc-pVTZ Guess=Read SCF=(VeryTight,CDIIS,VShift=10)
 ---------------------------------------------------------------

 ---------
 O2_O2_218
 ---------
 Symbolic Z-matrix:
 Charge = -1 Multiplicity = 6

                         Standard orientation:
 ---------------------------------------------------------------------
 Center     Atomic      Atomic             Coordinates (Angstroms)
 Number     Number       Type             X           Y           Z
 ---------------------------------------------------------------------
      1          8           0        0.000000    0.000000    2.335861
      2          8           0        0.000000    0.000000    3.688241
      3          8           0        0.000000    0.000000   -3.688241
      4          8           0        0.000000    0.000000   -2.335861
 ---------------------------------------------------------------------

 SCF Done:  E(ROHF) =  -298.985007573     A.U. after   11 cycles
 E2 =    -0.1077470602D+01 EUMP2 =    -0.30006247817570D+03
 CCSD(T)
 CCSD(T)= -0.30003298228D+03

 The electronic state is 6-SGG.
 Alpha  occ. eigenvalues --  -20.50471 -20.50470 -20.48132 -20.48131  -1.36499
 Alpha  occ. eigenvalues --   -1.36498  -1.00563  -1.00376  -0.52678  -0.52678
 Alpha  occ. eigenvalues --   -0.52675  -0.52675  -0.51902  -0.51576  -0.32730
 Alpha  occ. eigenvalues --   -0.32730  -0.32725  -0.32725   0.19122
 Alpha virt. eigenvalues --    0.28802   0.84213   0.86788   0.89892   0.89892
 Alpha virt. eigenvalues --    0.89954   0.89954   0.93932   0.95772   0.99171
 Alpha virt. eigenvalues --    0.99171   0.99330   0.99330   1.10257   1.10259

 Mulliken charges and spin densities:
               1          2
     1  O   -0.193648   1.316061
     2  O   -0.306352   1.183939
     3  O   -0.306352   1.183939
     4  O   -0.193648   1.316061
 Sum of Mulliken charges =  -1.00000   5.00000

 Dipole moment (field-independent basis, Debye):
    X=             -0.0000    Y=             -0.0000    Z=             -0.0000  Tot=              0.0000
 Quadrupole moment (field-independent basis, Debye-Ang):
   XX=            -22.1690   YY=            -22.1690   ZZ=            -75.5006
   XY=             -0.0000   XZ=              0.0000   YZ=             -0.0000

 82\MP4SDQ=-299.9932834\CCSD=-299.980754\CCSD(T)=-300.0329823\RMSD=1.08
 Normal termination of Gaussian 16 at Sun Jan 15 08:40:54 2023.
