 Gaussian 16, Revision A.03,
 Gaussian 16:  ES64L-G16RevA.03 25-Dec-2016

 ---------------------------------------------------------------
 #p ROCCSD(T)/cc-pVTZ Guess=Read SCF=(VeryTight,CDIIS,VShift=10)
 ---------------------------------------------------------------

 ---------
 O2_O2_166
 ---------
 Symbolic Z-matrix:
 Charge = -1 Multiplicity = 6

                         Standard orientation:
 ---------------------------------------------------------------------
 Center     Atomic      Atomic             Coordinates (Angstroms)
 Number     Number       Type             X           Y           Z
 ---------------------------------------------------------------------
      1          8           0        0.000000    0.000000    1.967738
      2          8           0        0.000000    0.000000    3.320118
      3          8           0        0.000000    0.000000   -3.320118
      4          8           0        0.000000    0.000000   -1.967738
 ---------------------------------------------------------------------

 SCF Done:  E(ROHF) =  -298.993914582     A.U. after   13 cycles
 E2 =    -0.1075599878D+01 EUMP2 =    -0.30006951446039D+03
 CCSD(T)
 CCSD(T)= -0.30004133840D+03

 The electronic state is 6-SGG.
 Alpha  occ. eigenvalues --  -20.50788 -20.50787 -20.47549 -20.47549  -1.36177
 Alpha  occ. eigenvalues --   -1.36170  -1.00154  -0.99931  -0.52440  -0.52440
 Alpha  occ. eigenvalues --   -0.52421  -0.52421  -0.51392  -0.50720  -0.32381
 Alpha  occ. eigenvalues --   -0.32381  -0.32348  -0.32348   0.18437
 Alpha virt. eigenvalues --    0.31420   0.80333   0.89346   0.90112   0.90112
 Alpha virt. eigenvalues --    0.90582   0.90582   0.92809   0.99229   0.99229
 Alpha virt. eigenvalues --    1.00352   1.00352   1.02673   1.10651   1.10700

 Mulliken charges and spin densities:
               1          2
     1  O   -0.180533   1.338395
     2  O   -0.319467   1.161605
     3  O   -0.319467   1.161605
     4  O   -0.180533   1.338395
 Sum of Mulliken charges =  -1.00000   5.00000

 Dipole moment (field-independent basis, Debye):
    X=             -0.0000    Y=              0.0000    Z=              0.0000  Tot=              0.0000
 Quadrupole moment (field-independent basis, Debye-Ang):
   XX=            -22.1862   YY=            -22.1862   ZZ=            -65.3411
   XY=             -0.0000   XZ=              0.0000   YZ=             -0.0000

 45\MP4SDQ=-300.0024003\CCSD=-299.9892332\CCSD(T)=-300.0413384\RMSD=4.7
 Normal termination of Gaussian 16 at Sun Jan 15 06:23:11 2023.
