 Gaussian 16, Revision A.03,
 Gaussian 16:  ES64L-G16RevA.03 25-Dec-2016

 ---------------------------------------------------------------
 #p ROCCSD(T)/cc-pVTZ Guess=Read SCF=(VeryTight,CDIIS,VShift=10)
 ---------------------------------------------------------------

 ---------
 O2_O2_171
 ---------
 Symbolic Z-matrix:
 Charge = -1 Multiplicity = 6

                         Standard orientation:
 ---------------------------------------------------------------------
 Center     Atomic      Atomic             Coordinates (Angstroms)
 Number     Number       Type             X           Y           Z
 ---------------------------------------------------------------------
      1          8           0        0.000000    0.000000    2.003135
      2          8           0        0.000000    0.000000    3.355515
      3          8           0        0.000000    0.000000   -3.355515
      4          8           0        0.000000    0.000000   -2.003135
 ---------------------------------------------------------------------

 SCF Done:  E(ROHF) =  -298.992662714     A.U. after   12 cycles
 E2 =    -0.1075829274D+01 EUMP2 =    -0.30006849198767D+03
 CCSD(T)
 CCSD(T)= -0.30004015582D+03

 The electronic state is 6-SGG.
 Alpha  occ. eigenvalues --  -20.50729 -20.50728 -20.47612 -20.47612  -1.36204
 Alpha  occ. eigenvalues --   -1.36199  -1.00193  -0.99977  -0.52455  -0.52455
 Alpha  occ. eigenvalues --   -0.52440  -0.52440  -0.51444  -0.50824  -0.32413
 Alpha  occ. eigenvalues --   -0.32413  -0.32385  -0.32385   0.18536
 Alpha virt. eigenvalues --    0.31091   0.80845   0.89169   0.90110   0.90110
 Alpha virt. eigenvalues --    0.90503   0.90503   0.92925   0.99257   0.99257
 Alpha virt. eigenvalues --    1.00203   1.00203   1.01477   1.10614   1.10654

 Mulliken charges and spin densities:
               1          2
     1  O   -0.182091   1.335259
     2  O   -0.317909   1.164741
     3  O   -0.317909   1.164741
     4  O   -0.182091   1.335259
 Sum of Mulliken charges =  -1.00000   5.00000

 Dipole moment (field-independent basis, Debye):
    X=             -0.0000    Y=              0.0000    Z=             -0.0000  Tot=              0.0000
 Quadrupole moment (field-independent basis, Debye-Ang):
   XX=            -22.1841   YY=            -22.1841   ZZ=            -66.2842
   XY=             -0.0000   XZ=              0.0000   YZ=             -0.0000

 P4SDQ=-300.0011155\CCSD=-299.9880375\CCSD(T)=-300.0401558\RMSD=4.991e-
 Normal termination of Gaussian 16 at Sun Jan 15 06:35:42 2023.
