 Gaussian 16, Revision A.03,
 Gaussian 16:  ES64L-G16RevA.03 25-Dec-2016

 ---------------------------------------------------------------
 #p ROCCSD(T)/cc-pVTZ Guess=Read SCF=(VeryTight,CDIIS,VShift=10)
 ---------------------------------------------------------------

 ---------
 O2_O2_194
 ---------
 Symbolic Z-matrix:
 Charge = -1 Multiplicity = 6

                         Standard orientation:
 ---------------------------------------------------------------------
 Center     Atomic      Atomic             Coordinates (Angstroms)
 Number     Number       Type             X           Y           Z
 ---------------------------------------------------------------------
      1          8           0        0.000000    0.000000    2.165958
      2          8           0        0.000000    0.000000    3.518338
      3          8           0        0.000000    0.000000   -3.518338
      4          8           0        0.000000    0.000000   -2.165958
 ---------------------------------------------------------------------

 SCF Done:  E(ROHF) =  -298.987982838     A.U. after   12 cycles
 E2 =    -0.1076744434D+01 EUMP2 =    -0.30006472727199D+03
 CCSD(T)
 CCSD(T)= -0.30003576201D+03

 The electronic state is 6-SGG.
 Alpha  occ. eigenvalues --  -20.50534 -20.50533 -20.47868 -20.47868  -1.36336
 Alpha  occ. eigenvalues --   -1.36333  -1.00369  -1.00173  -0.52543  -0.52543
 Alpha  occ. eigenvalues --   -0.52536  -0.52536  -0.51675  -0.51234  -0.32556
 Alpha  occ. eigenvalues --   -0.32556  -0.32544  -0.32544   0.18897
 Alpha virt. eigenvalues --    0.29799   0.82925   0.88065   0.90039   0.90039
 Alpha virt. eigenvalues --    0.90204   0.90204   0.93491   0.97654   0.99280
 Alpha virt. eigenvalues --    0.99280   0.99688   0.99688   1.10448   1.10458

 Mulliken charges and spin densities:
               1          2
     1  O   -0.188217   1.324050
     2  O   -0.311783   1.175950
     3  O   -0.311783   1.175950
     4  O   -0.188217   1.324050
 Sum of Mulliken charges =  -1.00000   5.00000

 Dipole moment (field-independent basis, Debye):
    X=             -0.0000    Y=              0.0000    Z=              0.0000  Tot=              0.0000
 Quadrupole moment (field-independent basis, Debye-Ang):
   XX=            -22.1754   YY=            -22.1754   ZZ=            -70.7215
   XY=             -0.0000   XZ=              0.0000   YZ=             -0.0000

 73\MP4SDQ=-299.9963264\CCSD=-299.9835815\CCSD(T)=-300.035762\RMSD=7.64
 Normal termination of Gaussian 16 at Sun Jan 15 07:37:18 2023.
