 Gaussian 16, Revision A.03,
 Gaussian 16:  ES64L-G16RevA.03 25-Dec-2016

 ---------------------------------------------------------------
 #p ROCCSD(T)/cc-pVTZ Guess=Read SCF=(VeryTight,CDIIS,VShift=10)
 ---------------------------------------------------------------

 ---------
 O2_O2_279
 ---------
 Symbolic Z-matrix:
 Charge = -1 Multiplicity = 6

                         Standard orientation:
 ---------------------------------------------------------------------
 Center     Atomic      Atomic             Coordinates (Angstroms)
 Number     Number       Type             X           Y           Z
 ---------------------------------------------------------------------
      1          8           0        0.000000    0.000000    2.767698
      2          8           0        0.000000    0.000000    4.120078
      3          8           0        0.000000    0.000000   -4.120078
      4          8           0        0.000000    0.000000   -2.767698
 ---------------------------------------------------------------------

 SCF Done:  E(ROHF) =  -298.982524788     A.U. after    9 cycles
 E2 =    -0.1078650367D+01 EUMP2 =    -0.30006117515467D+03
 CCSD(T)
 CCSD(T)= -0.30003063983D+03

 The electronic state is 6-SGG.
 Alpha  occ. eigenvalues --  -20.50635 -20.50634 -20.48840 -20.48840  -1.36975
 Alpha  occ. eigenvalues --   -1.36974  -1.01077  -1.00898  -0.53121  -0.53121
 Alpha  occ. eigenvalues --   -0.53121  -0.53121  -0.52419  -0.52232  -0.33237
 Alpha  occ. eigenvalues --   -0.33237  -0.33236  -0.33236   0.19318
 Alpha virt. eigenvalues --    0.27237   0.84795   0.85036   0.89421   0.89421
 Alpha virt. eigenvalues --    0.89426   0.89426   0.93987   0.94277   0.98701
 Alpha virt. eigenvalues --    0.98701   0.98720   0.98720   1.09762   1.09764

 Mulliken charges and spin densities:
               1          2
     1  O   -0.205581   1.301671
     2  O   -0.294419   1.198329
     3  O   -0.294419   1.198329
     4  O   -0.205581   1.301671
 Sum of Mulliken charges =  -1.00000   5.00000

 Dipole moment (field-independent basis, Debye):
    X=             -0.0000    Y=             -0.0000    Z=             -0.0000  Tot=              0.0000
 Quadrupole moment (field-independent basis, Debye-Ang):
   XX=            -22.1623   YY=            -22.1623   ZZ=            -88.5617
   XY=             -0.0000   XZ=              0.0000   YZ=             -0.0000

 P4SDQ=-299.9906915\CCSD=-299.9783705\CCSD(T)=-300.0306398\RMSD=6.030e-
 Normal termination of Gaussian 16 at Mon Jan 16 05:05:51 2023.
