 Gaussian 16, Revision A.03,
 Gaussian 16:  ES64L-G16RevA.03 25-Dec-2016

 ---------------------------------------------------------------
 #p ROCCSD(T)/cc-pVTZ Guess=Read SCF=(VeryTight,CDIIS,VShift=10)
 ---------------------------------------------------------------

 --------
 O2_O2_65
 --------
 Symbolic Z-matrix:
 Charge = -1 Multiplicity = 6

                         Standard orientation:
 ---------------------------------------------------------------------
 Center     Atomic      Atomic             Coordinates (Angstroms)
 Number     Number       Type             X           Y           Z
 ---------------------------------------------------------------------
      1          8           0        0.000000    0.000000    1.252730
      2          8           0        0.000000    0.000000    2.605110
      3          8           0        0.000000    0.000000   -2.605110
      4          8           0        0.000000    0.000000   -1.252730
 ---------------------------------------------------------------------

 SCF Done:  E(ROHF) =  -299.007333449     A.U. after   14 cycles
 E2 =    -0.1076557511D+01 EUMP2 =    -0.30008389096044D+03
 CCSD(T)
 CCSD(T)= -0.30005701187D+03

 The electronic state is 6-SGG.
 Alpha  occ. eigenvalues --  -20.48765 -20.48763 -20.44555 -20.44554  -1.34127
 Alpha  occ. eigenvalues --   -1.33821  -0.98696  -0.97008  -0.51177  -0.50415
 Alpha  occ. eigenvalues --   -0.50415  -0.49846  -0.49846  -0.46279  -0.30390
 Alpha  occ. eigenvalues --   -0.30390  -0.29596  -0.29596   0.16213
 Alpha virt. eigenvalues --    0.39106   0.88573   0.88807   0.88807   0.91771
 Alpha virt. eigenvalues --    0.93874   0.93874   0.94370   0.97965   0.97965
 Alpha virt. eigenvalues --    1.10015   1.10015   1.12086   1.12830   1.49845

 Mulliken charges and spin densities:
               1          2
     1  O   -0.147210   1.338018
     2  O   -0.352790   1.161982
     3  O   -0.352790   1.161982
     4  O   -0.147210   1.338018
 Sum of Mulliken charges =  -1.00000   5.00000

 Dipole moment (field-independent basis, Debye):
    X=             -0.0000    Y=              0.0000    Z=              0.0000  Tot=              0.0000
 Quadrupole moment (field-independent basis, Debye-Ang):
   XX=            -22.1969   YY=            -22.1969   ZZ=            -49.9821
   XY=             -0.0000   XZ=              0.0000   YZ=             -0.0000

 P4SDQ=-300.0182519\CCSD=-300.0042752\CCSD(T)=-300.0570119\RMSD=2.392e-
 Normal termination of Gaussian 16 at Sun Jan 15 01:55:26 2023.
