 Gaussian 16, Revision A.03,
 Gaussian 16:  ES64L-G16RevA.03 25-Dec-2016

 ---------------------------------------------------------------
 #p ROCCSD(T)/cc-pVTZ Guess=Read SCF=(VeryTight,CDIIS,VShift=10)
 ---------------------------------------------------------------

 ---------
 O2_O2_263
 ---------
 Symbolic Z-matrix:
 Charge = -1 Multiplicity = 6

                         Standard orientation:
 ---------------------------------------------------------------------
 Center     Atomic      Atomic             Coordinates (Angstroms)
 Number     Number       Type             X           Y           Z
 ---------------------------------------------------------------------
      1          8           0        0.000000    0.000000    2.654429
      2          8           0        0.000000    0.000000    4.006809
      3          8           0        0.000000    0.000000   -4.006809
      4          8           0        0.000000    0.000000   -2.654429
 ---------------------------------------------------------------------

 SCF Done:  E(ROHF) =  -298.982792154     A.U. after    9 cycles
 E2 =    -0.1078403342D+01 EUMP2 =    -0.30006119549654D+03
 CCSD(T)
 CCSD(T)= -0.30003089845D+03

 The electronic state is 6-SGG.
 Alpha  occ. eigenvalues --  -20.50572 -20.50571 -20.48657 -20.48657  -1.36851
 Alpha  occ. eigenvalues --   -1.36850  -1.00946  -1.00765  -0.53002  -0.53002
 Alpha  occ. eigenvalues --   -0.53002  -0.53002  -0.52293  -0.52081  -0.33104
 Alpha  occ. eigenvalues --   -0.33104  -0.33103  -0.33103   0.19295
 Alpha virt. eigenvalues --    0.27562   0.84832   0.85310   0.89545   0.89545
 Alpha virt. eigenvalues --    0.89554   0.89554   0.94066   0.94497   0.98829
 Alpha virt. eigenvalues --    0.98829   0.98858   0.98858   1.09887   1.09890

 Mulliken charges and spin densities:
               1          2
     1  O   -0.202704   1.304998
     2  O   -0.297296   1.195002
     3  O   -0.297296   1.195002
     4  O   -0.202704   1.304998
 Sum of Mulliken charges =  -1.00000   5.00000

 Dipole moment (field-independent basis, Debye):
    X=             -0.0000    Y=              0.0000    Z=              0.0000  Tot=              0.0000
 Quadrupole moment (field-independent basis, Debye-Ang):
   XX=            -22.1633   YY=            -22.1633   ZZ=            -84.9844
   XY=             -0.0000   XZ=              0.0000   YZ=             -0.0000

 P4SDQ=-299.9909836\CCSD=-299.9786332\CCSD(T)=-300.0308984\RMSD=9.415e-
 Normal termination of Gaussian 16 at Mon Jan 16 04:45:45 2023.
