 Gaussian 16, Revision A.03,
 Gaussian 16:  ES64L-G16RevA.03 25-Dec-2016

 ---------------------------------------------------------------
 #p ROCCSD(T)/cc-pVTZ Guess=Read SCF=(VeryTight,CDIIS,VShift=10)
 ---------------------------------------------------------------

 --------
 O2_O2_45
 --------
 Symbolic Z-matrix:
 Charge = -1 Multiplicity = 6

                         Standard orientation:
 ---------------------------------------------------------------------
 Center     Atomic      Atomic             Coordinates (Angstroms)
 Number     Number       Type             X           Y           Z
 ---------------------------------------------------------------------
      1          8           0        0.000000    0.000000    1.111144
      2          8           0        0.000000    0.000000    2.463524
      3          8           0        0.000000    0.000000   -2.463524
      4          8           0        0.000000    0.000000   -1.111144
 ---------------------------------------------------------------------

 SCF Done:  E(ROHF) =  -299.000994614     A.U. after   11 cycles
 E2 =    -0.1079465773D+01 EUMP2 =    -0.30008046038688D+03
 CCSD(T)
 CCSD(T)= -0.30005271411D+03

 The electronic state is 6-SGG.
 Alpha  occ. eigenvalues --  -20.46936 -20.46933 -20.44041 -20.44040  -1.33466
 Alpha  occ. eigenvalues --   -1.32803  -0.98875  -0.95658  -0.52002  -0.49664
 Alpha  occ. eigenvalues --   -0.49664  -0.48616  -0.48616  -0.44217  -0.29994
 Alpha  occ. eigenvalues --   -0.29994  -0.28414  -0.28414   0.15739
 Alpha virt. eigenvalues --    0.41531   0.87782   0.89380   0.89380   0.90944
 Alpha virt. eigenvalues --    0.94476   0.94476   0.98134   0.98134   1.05769
 Alpha virt. eigenvalues --    1.12398   1.13296   1.13296   1.13667   1.58137

 Mulliken charges and spin densities:
               1          2
     1  O   -0.153167   1.286982
     2  O   -0.346833   1.213018
     3  O   -0.346833   1.213018
     4  O   -0.153167   1.286982
 Sum of Mulliken charges =  -1.00000   5.00000

 Dipole moment (field-independent basis, Debye):
    X=             -0.0000    Y=              0.0000    Z=             -0.0000  Tot=              0.0000
 Quadrupole moment (field-independent basis, Debye-Ang):
   XX=            -22.1930   YY=            -22.1930   ZZ=            -47.2714
   XY=             -0.0000   XZ=              0.0000   YZ=             -0.0000

 4\MP4SDQ=-300.0134276\CCSD=-299.999554\CCSD(T)=-300.0527141\RMSD=7.542
 Normal termination of Gaussian 16 at Sun Jan 15 01:05:43 2023.
