 Gaussian 16, Revision A.03,
 Gaussian 16:  ES64L-G16RevA.03 25-Dec-2016

 ---------------------------------------------------------------
 #p ROCCSD(T)/cc-pVTZ Guess=Read SCF=(VeryTight,CDIIS,VShift=10)
 ---------------------------------------------------------------

 ---------
 O2_O2_116
 ---------
 Symbolic Z-matrix:
 Charge = -1 Multiplicity = 6

                         Standard orientation:
 ---------------------------------------------------------------------
 Center     Atomic      Atomic             Coordinates (Angstroms)
 Number     Number       Type             X           Y           Z
 ---------------------------------------------------------------------
      1          8           0        0.000000    0.000000    1.613774
      2          8           0        0.000000    0.000000    2.966154
      3          8           0        0.000000    0.000000   -2.966154
      4          8           0        0.000000    0.000000   -1.613774
 ---------------------------------------------------------------------

 SCF Done:  E(ROHF) =  -299.006397183     A.U. after   16 cycles
 E2 =    -0.1073565134D+01 EUMP2 =    -0.30007996231649D+03
 CCSD(T)
 CCSD(T)= -0.30005365090D+03

 The electronic state is 6-SGG.
 Alpha  occ. eigenvalues --  -20.51047 -20.51046 -20.46390 -20.46390  -1.35614
 Alpha  occ. eigenvalues --   -1.35571  -0.99518  -0.99086  -0.51996  -0.51996
 Alpha  occ. eigenvalues --   -0.51892  -0.51892  -0.50868  -0.49206  -0.31730
 Alpha  occ. eigenvalues --   -0.31730  -0.31572  -0.31572   0.17231
 Alpha virt. eigenvalues --    0.35220   0.78798   0.89737   0.89737   0.89855
 Alpha virt. eigenvalues --    0.91886   0.91886   0.92275   0.98519   0.98519
 Alpha virt. eigenvalues --    1.03269   1.03269   1.11155   1.11419   1.22512

 Mulliken charges and spin densities:
               1          2
     1  O   -0.159600   1.373738
     2  O   -0.340400   1.126262
     3  O   -0.340400   1.126262
     4  O   -0.159600   1.373738
 Sum of Mulliken charges =  -1.00000   5.00000

 Dipole moment (field-independent basis, Debye):
    X=             -0.0000    Y=              0.0000    Z=              0.0000  Tot=              0.0000
 Quadrupole moment (field-independent basis, Debye-Ang):
   XX=            -22.1984   YY=            -22.1984   ZZ=            -56.8022
   XY=             -0.0000   XZ=              0.0000   YZ=             -0.0000

 23\MP4SDQ=-300.0155159\CCSD=-300.001505\CCSD(T)=-300.0536509\RMSD=7.13
 Normal termination of Gaussian 16 at Sun Jan 15 04:11:25 2023.
