 Gaussian 16, Revision A.03,
 Gaussian 16:  ES64L-G16RevA.03 25-Dec-2016

 ---------------------------------------------------------------
 #p ROCCSD(T)/cc-pVTZ Guess=Read SCF=(VeryTight,CDIIS,VShift=10)
 ---------------------------------------------------------------

 --------
 O2_O2_87
 --------
 Symbolic Z-matrix:
 Charge = -1 Multiplicity = 6

                         Standard orientation:
 ---------------------------------------------------------------------
 Center     Atomic      Atomic             Coordinates (Angstroms)
 Number     Number       Type             X           Y           Z
 ---------------------------------------------------------------------
      1          8           0        0.000000    0.000000    1.408474
      2          8           0        0.000000    0.000000    2.760854
      3          8           0        0.000000    0.000000   -2.760854
      4          8           0        0.000000    0.000000   -1.408474
 ---------------------------------------------------------------------

 SCF Done:  E(ROHF) =  -299.008785527     A.U. after   14 cycles
 E2 =    -0.1074409442D+01 EUMP2 =    -0.30008319496839D+03
 CCSD(T)
 CCSD(T)= -0.30005704259D+03

 The electronic state is 6-SGG.
 Alpha  occ. eigenvalues --  -20.50111 -20.50109 -20.45313 -20.45313  -1.34840
 Alpha  occ. eigenvalues --   -1.34711  -0.98953  -0.98073  -0.51198  -0.51198
 Alpha  occ. eigenvalues --   -0.50920  -0.50920  -0.50816  -0.47798  -0.30968
 Alpha  occ. eigenvalues --   -0.30968  -0.30580  -0.30580   0.16637
 Alpha virt. eigenvalues --    0.37300   0.84971   0.89115   0.89115   0.89272
 Alpha virt. eigenvalues --    0.92220   0.93044   0.93044   0.98070   0.98070
 Alpha virt. eigenvalues --    1.06674   1.06674   1.11681   1.12171   1.38599

 Mulliken charges and spin densities:
               1          2
     1  O   -0.149527   1.367207
     2  O   -0.350473   1.132793
     3  O   -0.350473   1.132793
     4  O   -0.149527   1.367207
 Sum of Mulliken charges =  -1.00000   5.00000

 Dipole moment (field-independent basis, Debye):
    X=             -0.0000    Y=              0.0000    Z=              0.0000  Tot=              0.0000
 Quadrupole moment (field-independent basis, Debye-Ang):
   XX=            -22.1964   YY=            -22.1964   ZZ=            -52.8074
   XY=             -0.0000   XZ=              0.0000   YZ=             -0.0000

 MP4SDQ=-300.0187054\CCSD=-300.0046295\CCSD(T)=-300.0570426\RMSD=3.129e
 Normal termination of Gaussian 16 at Sun Jan 15 02:53:51 2023.
