 Gaussian 16, Revision A.03,
 Gaussian 16:  ES64L-G16RevA.03 25-Dec-2016

 ---------------------------------------------------------------
 #p ROCCSD(T)/cc-pVTZ Guess=Read SCF=(VeryTight,CDIIS,VShift=10)
 ---------------------------------------------------------------

 --------
 O2_O2_74
 --------
 Symbolic Z-matrix:
 Charge = -1 Multiplicity = 6

                         Standard orientation:
 ---------------------------------------------------------------------
 Center     Atomic      Atomic             Coordinates (Angstroms)
 Number     Number       Type             X           Y           Z
 ---------------------------------------------------------------------
      1          8           0        0.000000    0.000000    1.316443
      2          8           0        0.000000    0.000000    2.668823
      3          8           0        0.000000    0.000000   -2.668823
      4          8           0        0.000000    0.000000   -1.316443
 ---------------------------------------------------------------------

 SCF Done:  E(ROHF) =  -299.008348578     A.U. after   11 cycles
 E2 =    -0.1075522009D+01 EUMP2 =    -0.30008387058657D+03
 CCSD(T)
 CCSD(T)= -0.30005736646D+03

 The electronic state is 6-SGG.
 Alpha  occ. eigenvalues --  -20.49382 -20.49380 -20.44847 -20.44847  -1.34424
 Alpha  occ. eigenvalues --   -1.34209  -0.98763  -0.97482  -0.50973  -0.50744
 Alpha  occ. eigenvalues --   -0.50744  -0.50318  -0.50318  -0.46967  -0.30615
 Alpha  occ. eigenvalues --   -0.30615  -0.30025  -0.30025   0.16392
 Alpha virt. eigenvalues --    0.38303   0.88866   0.88866   0.88874   0.89963
 Alpha virt. eigenvalues --    0.92086   0.93551   0.93551   0.97976   0.97976
 Alpha virt. eigenvalues --    1.08594   1.08595   1.11926   1.12554   1.45510

 Mulliken charges and spin densities:
               1          2
     1  O   -0.147402   1.352704
     2  O   -0.352598   1.147296
     3  O   -0.352598   1.147296
     4  O   -0.147402   1.352704
 Sum of Mulliken charges =  -1.00000   5.00000

 Dipole moment (field-independent basis, Debye):
    X=             -0.0000    Y=              0.0000    Z=              0.0000  Tot=              0.0000
 Quadrupole moment (field-independent basis, Debye-Ang):
   XX=            -22.1965   YY=            -22.1965   ZZ=            -51.1385
   XY=             -0.0000   XZ=              0.0000   YZ=             -0.0000

 6\MP4SDQ=-300.0187971\CCSD=-300.0047759\CCSD(T)=-300.0573665\RMSD=2.33
 Normal termination of Gaussian 16 at Sun Jan 15 02:20:58 2023.
