 Gaussian 16, Revision A.03,
 Gaussian 16:  ES64L-G16RevA.03 25-Dec-2016

 ---------------------------------------------------------------
 #p ROCCSD(T)/cc-pVTZ Guess=Read SCF=(VeryTight,CDIIS,VShift=10)
 ---------------------------------------------------------------

 --------
 O2_O2_82
 --------
 Symbolic Z-matrix:
 Charge = -1 Multiplicity = 6

                         Standard orientation:
 ---------------------------------------------------------------------
 Center     Atomic      Atomic             Coordinates (Angstroms)
 Number     Number       Type             X           Y           Z
 ---------------------------------------------------------------------
      1          8           0        0.000000    0.000000    1.373078
      2          8           0        0.000000    0.000000    2.725458
      3          8           0        0.000000    0.000000   -2.725458
      4          8           0        0.000000    0.000000   -1.373078
 ---------------------------------------------------------------------

 SCF Done:  E(ROHF) =  -299.008735990     A.U. after   14 cycles
 E2 =    -0.1074784298D+01 EUMP2 =    -0.30008352028797D+03
 CCSD(T)
 CCSD(T)= -0.30005726189D+03

 The electronic state is 6-SGG.
 Alpha  occ. eigenvalues --  -20.49852 -20.49850 -20.45129 -20.45129  -1.34682
 Alpha  occ. eigenvalues --   -1.34525  -0.98870  -0.97857  -0.51027  -0.51027
 Alpha  occ. eigenvalues --   -0.50859  -0.50700  -0.50700  -0.47497  -0.30830
 Alpha  occ. eigenvalues --   -0.30830  -0.30374  -0.30374   0.16543
 Alpha virt. eigenvalues --    0.37671   0.86730   0.89005   0.89005   0.89125
 Alpha virt. eigenvalues --    0.92177   0.93243   0.93243   0.98024   0.98024
 Alpha virt. eigenvalues --    1.07390   1.07390   1.11776   1.12316   1.41333

 Mulliken charges and spin densities:
               1          2
     1  O   -0.148490   1.362509
     2  O   -0.351510   1.137491
     3  O   -0.351510   1.137491
     4  O   -0.148490   1.362509
 Sum of Mulliken charges =  -1.00000   5.00000

 Dipole moment (field-independent basis, Debye):
    X=             -0.0000    Y=              0.0000    Z=             -0.0000  Tot=              0.0000
 Quadrupole moment (field-independent basis, Debye-Ang):
   XX=            -22.1963   YY=            -22.1963   ZZ=            -52.1624
   XY=             -0.0000   XZ=              0.0000   YZ=             -0.0000

 MP4SDQ=-300.0188425\CCSD=-300.0047848\CCSD(T)=-300.0572619\RMSD=2.803e
 Normal termination of Gaussian 16 at Sun Jan 15 02:41:31 2023.
