 Gaussian 16, Revision A.03,
 Gaussian 16:  ES64L-G16RevA.03 25-Dec-2016

 ---------------------------------------------------------------
 #p ROCCSD(T)/cc-pVTZ Guess=Read SCF=(VeryTight,CDIIS,VShift=10)
 ---------------------------------------------------------------

 ---------
 O2_O2_126
 ---------
 Symbolic Z-matrix:
 Charge = -1 Multiplicity = 6

                         Standard orientation:
 ---------------------------------------------------------------------
 Center     Atomic      Atomic             Coordinates (Angstroms)
 Number     Number       Type             X           Y           Z
 ---------------------------------------------------------------------
      1          8           0        0.000000    0.000000    1.684566
      2          8           0        0.000000    0.000000    3.036946
      3          8           0        0.000000    0.000000   -3.036946
      4          8           0        0.000000    0.000000   -1.684566
 ---------------------------------------------------------------------

 SCF Done:  E(ROHF) =  -299.004478928     A.U. after   12 cycles
 E2 =    -0.1073768548D+01 EUMP2 =    -0.30007824747664D+03
 CCSD(T)
 CCSD(T)= -0.30005161312D+03

 The electronic state is 6-SGG.
 Alpha  occ. eigenvalues --  -20.51135 -20.51133 -20.46716 -20.46716  -1.35799
 Alpha  occ. eigenvalues --   -1.35770  -0.99695  -0.99338  -0.52168  -0.52168
 Alpha  occ. eigenvalues --   -0.52094  -0.52094  -0.50958  -0.49590  -0.31935
 Alpha  occ. eigenvalues --   -0.31935  -0.31819  -0.31819   0.17470
 Alpha virt. eigenvalues --    0.34457   0.78135   0.89883   0.89883   0.89916
 Alpha virt. eigenvalues --    0.91536   0.91536   0.92290   0.98703   0.98703
 Alpha virt. eigenvalues --    1.02416   1.02416   1.11005   1.11217   1.17484

 Mulliken charges and spin densities:
               1          2
     1  O   -0.164124   1.368769
     2  O   -0.335876   1.131231
     3  O   -0.335876   1.131231
     4  O   -0.164124   1.368769
 Sum of Mulliken charges =  -1.00000   5.00000

 Dipole moment (field-independent basis, Debye):
    X=             -0.0000    Y=              0.0000    Z=              0.0000  Tot=              0.0000
 Quadrupole moment (field-independent basis, Debye-Ang):
   XX=            -22.1981   YY=            -22.1981   ZZ=            -58.3374
   XY=             -0.0000   XZ=              0.0000   YZ=             -0.0000

 75\MP4SDQ=-300.0134114\CCSD=-299.9995144\CCSD(T)=-300.0516131\RMSD=1.4
 Normal termination of Gaussian 16 at Sun Jan 15 04:36:06 2023.
