 Gaussian 16, Revision A.03,
 Gaussian 16:  ES64L-G16RevA.03 25-Dec-2016

 ---------------------------------------------------------------
 #p ROCCSD(T)/cc-pVTZ Guess=Read SCF=(VeryTight,CDIIS,VShift=10)
 ---------------------------------------------------------------

 --------
 O2_O2_79
 --------
 Symbolic Z-matrix:
 Charge = -1 Multiplicity = 6

                         Standard orientation:
 ---------------------------------------------------------------------
 Center     Atomic      Atomic             Coordinates (Angstroms)
 Number     Number       Type             X           Y           Z
 ---------------------------------------------------------------------
      1          8           0        0.000000    0.000000    1.351840
      2          8           0        0.000000    0.000000    2.704220
      3          8           0        0.000000    0.000000   -2.704220
      4          8           0        0.000000    0.000000   -1.351840
 ---------------------------------------------------------------------

 SCF Done:  E(ROHF) =  -299.008638106     A.U. after   14 cycles
 E2 =    -0.1075041000D+01 EUMP2 =    -0.30008367910650D+03
 CCSD(T)
 CCSD(T)= -0.30005733917D+03

 The electronic state is 6-SGG.
 Alpha  occ. eigenvalues --  -20.49684 -20.49682 -20.45021 -20.45021  -1.34586
 Alpha  occ. eigenvalues --   -1.34409  -0.98826  -0.97721  -0.50922  -0.50922
 Alpha  occ. eigenvalues --   -0.50895  -0.50561  -0.50561  -0.47306  -0.30748
 Alpha  occ. eigenvalues --   -0.30748  -0.30246  -0.30246   0.16487
 Alpha virt. eigenvalues --    0.37901   0.87885   0.88946   0.88946   0.89033
 Alpha virt. eigenvalues --    0.92143   0.93360   0.93360   0.98002   0.98002
 Alpha virt. eigenvalues --    1.07834   1.07834   1.11833   1.12405   1.42931

 Mulliken charges and spin densities:
               1          2
     1  O   -0.147994   1.359168
     2  O   -0.352006   1.140832
     3  O   -0.352006   1.140832
     4  O   -0.147994   1.359168
 Sum of Mulliken charges =  -1.00000   5.00000

 Dipole moment (field-independent basis, Debye):
    X=             -0.0000    Y=              0.0000    Z=              0.0000  Tot=              0.0000
 Quadrupole moment (field-independent basis, Debye-Ang):
   XX=            -22.1963   YY=            -22.1963   ZZ=            -51.7778
   XY=             -0.0000   XZ=              0.0000   YZ=             -0.0000

 1\MP4SDQ=-300.0188659\CCSD=-300.0048212\CCSD(T)=-300.0573392\RMSD=3.00
 Normal termination of Gaussian 16 at Sun Jan 15 02:33:48 2023.
