 Gaussian 16, Revision A.03,
 Gaussian 16:  ES64L-G16RevA.03 25-Dec-2016

 ---------------------------------------------------------------
 #p ROCCSD(T)/cc-pVTZ Guess=Read SCF=(VeryTight,CDIIS,VShift=10)
 ---------------------------------------------------------------

 ---------
 O2_O2_280
 ---------
 Symbolic Z-matrix:
 Charge = -1 Multiplicity = 6

                         Standard orientation:
 ---------------------------------------------------------------------
 Center     Atomic      Atomic             Coordinates (Angstroms)
 Number     Number       Type             X           Y           Z
 ---------------------------------------------------------------------
      1          8           0        0.000000    0.000000    2.774777
      2          8           0        0.000000    0.000000    4.127157
      3          8           0        0.000000    0.000000   -4.127157
      4          8           0        0.000000    0.000000   -2.774777
 ---------------------------------------------------------------------

 SCF Done:  E(ROHF) =  -298.982512533     A.U. after   14 cycles
 E2 =    -0.1078664844D+01 EUMP2 =    -0.30006117737752D+03
 CCSD(T)
 CCSD(T)= -0.30003062782D+03

 The electronic state is 6-SGG.
 Alpha  occ. eigenvalues --  -20.50639 -20.50638 -20.48851 -20.48851  -1.36983
 Alpha  occ. eigenvalues --   -1.36982  -1.01085  -1.00906  -0.53129  -0.53129
 Alpha  occ. eigenvalues --   -0.53128  -0.53128  -0.52427  -0.52241  -0.33245
 Alpha  occ. eigenvalues --   -0.33245  -0.33244  -0.33244   0.19319
 Alpha virt. eigenvalues --    0.27218   0.84790   0.85022   0.89413   0.89413
 Alpha virt. eigenvalues --    0.89418   0.89418   0.93981   0.94265   0.98693
 Alpha virt. eigenvalues --    0.98693   0.98711   0.98711   1.09755   1.09756

 Mulliken charges and spin densities:
               1          2
     1  O   -0.205755   1.301470
     2  O   -0.294245   1.198530
     3  O   -0.294245   1.198530
     4  O   -0.205755   1.301470
 Sum of Mulliken charges =  -1.00000   5.00000

 Dipole moment (field-independent basis, Debye):
    X=             -0.0000    Y=              0.0000    Z=             -0.0000  Tot=              0.0000
 Quadrupole moment (field-independent basis, Debye-Ang):
   XX=            -22.1623   YY=            -22.1623   ZZ=            -88.7892
   XY=             -0.0000   XZ=              0.0000   YZ=             -0.0000

 P4SDQ=-299.9906778\CCSD=-299.9783583\CCSD(T)=-300.0306278\RMSD=7.977e-
 Normal termination of Gaussian 16 at Mon Jan 16 05:07:01 2023.
