 Gaussian 16, Revision A.03,
 Gaussian 16:  ES64L-G16RevA.03 25-Dec-2016

 ---------------------------------------------------------------
 #p ROCCSD(T)/cc-pVTZ Guess=Read SCF=(VeryTight,CDIIS,VShift=10)
 ---------------------------------------------------------------

 ---------
 O2_O2_139
 ---------
 Symbolic Z-matrix:
 Charge = -1 Multiplicity = 6

                         Standard orientation:
 ---------------------------------------------------------------------
 Center     Atomic      Atomic             Coordinates (Angstroms)
 Number     Number       Type             X           Y           Z
 ---------------------------------------------------------------------
      1          8           0        0.000000    0.000000    1.776597
      2          8           0        0.000000    0.000000    3.128977
      3          8           0        0.000000    0.000000   -3.128977
      4          8           0        0.000000    0.000000   -1.776597
 ---------------------------------------------------------------------

 SCF Done:  E(ROHF) =  -299.001298167     A.U. after   11 cycles
 E2 =    -0.1074279357D+01 EUMP2 =    -0.30007557752355D+03
 CCSD(T)
 CCSD(T)= -0.30004842724D+03

 The electronic state is 6-SGG.
 Alpha  occ. eigenvalues --  -20.51101 -20.51100 -20.47069 -20.47068  -1.35973
 Alpha  occ. eigenvalues --   -1.35955  -0.99885  -0.99593  -0.52311  -0.52311
 Alpha  occ. eigenvalues --   -0.52264  -0.52264  -0.51097  -0.50023  -0.32138
 Alpha  occ. eigenvalues --   -0.32138  -0.32060  -0.32060   0.17799
 Alpha virt. eigenvalues --    0.33434   0.78185   0.89880   0.90013   0.90013
 Alpha virt. eigenvalues --    0.91149   0.91149   0.92368   0.98924   0.98924
 Alpha virt. eigenvalues --    1.01535   1.01535   1.10788   1.11005   1.11744

 Mulliken charges and spin densities:
               1          2
     1  O   -0.170086   1.359166
     2  O   -0.329914   1.140834
     3  O   -0.329914   1.140834
     4  O   -0.170086   1.359166
 Sum of Mulliken charges =  -1.00000   5.00000

 Dipole moment (field-independent basis, Debye):
    X=             -0.0000    Y=              0.0000    Z=              0.0000  Tot=              0.0000
 Quadrupole moment (field-independent basis, Debye-Ang):
   XX=            -22.1959   YY=            -22.1959   ZZ=            -60.4766
   XY=             -0.0000   XZ=              0.0000   YZ=             -0.0000

 75\MP4SDQ=-300.0100419\CCSD=-299.9963555\CCSD(T)=-300.0484272\RMSD=9.7
 Normal termination of Gaussian 16 at Sun Jan 15 05:10:43 2023.
