 Gaussian 16, Revision A.03,
 Gaussian 16:  ES64L-G16RevA.03 25-Dec-2016

 ---------------------------------------------------------------
 #p ROCCSD(T)/cc-pVTZ Guess=Read SCF=(VeryTight,CDIIS,VShift=10)
 ---------------------------------------------------------------

 ---------
 O2_O2_152
 ---------
 Symbolic Z-matrix:
 Charge = -1 Multiplicity = 6

                         Standard orientation:
 ---------------------------------------------------------------------
 Center     Atomic      Atomic             Coordinates (Angstroms)
 Number     Number       Type             X           Y           Z
 ---------------------------------------------------------------------
      1          8           0        0.000000    0.000000    1.868627
      2          8           0        0.000000    0.000000    3.221008
      3          8           0        0.000000    0.000000   -3.221008
      4          8           0        0.000000    0.000000   -1.868627
 ---------------------------------------------------------------------

 SCF Done:  E(ROHF) =  -298.997709846     A.U. after   10 cycles
 E2 =    -0.1074915331D+01 EUMP2 =    -0.30007262517665D+03
 CCSD(T)
 CCSD(T)= -0.30004495134D+03

 The electronic state is 6-SGG.
 Alpha  occ. eigenvalues --  -20.50965 -20.50964 -20.47336 -20.47336  -1.36089
 Alpha  occ. eigenvalues --   -1.36077  -1.00030  -0.99780  -0.52389  -0.52389
 Alpha  occ. eigenvalues --   -0.52359  -0.52359  -0.51241  -0.50390  -0.32277
 Alpha  occ. eigenvalues --   -0.32277  -0.32225  -0.32225   0.18123
 Alpha virt. eigenvalues --    0.32425   0.78999   0.89708   0.90086   0.90086
 Alpha virt. eigenvalues --    0.90841   0.90841   0.92534   0.99102   0.99102
 Alpha virt. eigenvalues --    1.00874   1.00874   1.06790   1.10764   1.10841

 Mulliken charges and spin densities:
               1          2
     1  O   -0.175553   1.348587
     2  O   -0.324447   1.151413
     3  O   -0.324447   1.151413
     4  O   -0.175553   1.348587
 Sum of Mulliken charges =  -1.00000   5.00000

 Dipole moment (field-independent basis, Debye):
    X=             -0.0000    Y=              0.0000    Z=              0.0000  Tot=              0.0000
 Quadrupole moment (field-independent basis, Debye-Ang):
   XX=            -22.1918   YY=            -22.1918   ZZ=            -62.7609
   XY=             -0.0000   XZ=              0.0000   YZ=             -0.0000

 52\MP4SDQ=-300.0063107\CCSD=-299.9928746\CCSD(T)=-300.0449513\RMSD=5.2
 Normal termination of Gaussian 16 at Sun Jan 15 05:43:48 2023.
