 Gaussian 16, Revision A.03,
 Gaussian 16:  ES64L-G16RevA.03 25-Dec-2016

 ---------------------------------------------------------------
 #p ROCCSD(T)/cc-pVTZ Guess=Read SCF=(VeryTight,CDIIS,VShift=10)
 ---------------------------------------------------------------

 --------
 O2_O2_84
 --------
 Symbolic Z-matrix:
 Charge = -1 Multiplicity = 6

                         Standard orientation:
 ---------------------------------------------------------------------
 Center     Atomic      Atomic             Coordinates (Angstroms)
 Number     Number       Type             X           Y           Z
 ---------------------------------------------------------------------
      1          8           0        0.000000    0.000000    1.387236
      2          8           0        0.000000    0.000000    2.739616
      3          8           0        0.000000    0.000000   -2.739616
      4          8           0        0.000000    0.000000   -1.387236
 ---------------------------------------------------------------------

 SCF Done:  E(ROHF) =  -299.008772335     A.U. after   14 cycles
 E2 =    -0.1074626411D+01 EUMP2 =    -0.30008339874616D+03
 CCSD(T)
 CCSD(T)= -0.30005718730D+03

 The electronic state is 6-SGG.
 Alpha  occ. eigenvalues --  -20.49959 -20.49957 -20.45202 -20.45202  -1.34746
 Alpha  occ. eigenvalues --   -1.34601  -0.98902  -0.97945  -0.51096  -0.51096
 Alpha  occ. eigenvalues --   -0.50840  -0.50789  -0.50789  -0.47620  -0.30885
 Alpha  occ. eigenvalues --   -0.30885  -0.30458  -0.30458   0.16581
 Alpha virt. eigenvalues --    0.37521   0.86001   0.89048   0.89048   0.89185
 Alpha virt. eigenvalues --    0.92196   0.93164   0.93164   0.98041   0.98041
 Alpha virt. eigenvalues --    1.07100   1.07100   1.11738   1.12258   1.40249

 Mulliken charges and spin densities:
               1          2
     1  O   -0.148874   1.364517
     2  O   -0.351126   1.135483
     3  O   -0.351126   1.135483
     4  O   -0.148874   1.364517
 Sum of Mulliken charges =  -1.00000   5.00000

 Dipole moment (field-independent basis, Debye):
    X=             -0.0000    Y=              0.0000    Z=             -0.0000  Tot=              0.0000
 Quadrupole moment (field-independent basis, Debye-Ang):
   XX=            -22.1963   YY=            -22.1963   ZZ=            -52.4196
   XY=             -0.0000   XZ=              0.0000   YZ=             -0.0000

 7\MP4SDQ=-300.018802\CCSD=-300.0047364\CCSD(T)=-300.0571873\RMSD=2.835
 Normal termination of Gaussian 16 at Sun Jan 15 02:46:17 2023.
