 Gaussian 16, Revision A.03,
 Gaussian 16:  ES64L-G16RevA.03 25-Dec-2016

 ---------------------------------------------------------------
 #p ROCCSD(T)/cc-pVTZ Guess=Read SCF=(VeryTight,CDIIS,VShift=10)
 ---------------------------------------------------------------

 --------
 O2_O2_47
 --------
 Symbolic Z-matrix:
 Charge = -1 Multiplicity = 6

                         Standard orientation:
 ---------------------------------------------------------------------
 Center     Atomic      Atomic             Coordinates (Angstroms)
 Number     Number       Type             X           Y           Z
 ---------------------------------------------------------------------
      1          8           0        0.000000    0.000000    1.125302
      2          8           0        0.000000    0.000000    2.477682
      3          8           0        0.000000    0.000000   -2.477682
      4          8           0        0.000000    0.000000   -1.125302
 ---------------------------------------------------------------------

 SCF Done:  E(ROHF) =  -299.002020792     A.U. after   11 cycles
 E2 =    -0.1079166712D+01 EUMP2 =    -0.30008118750407D+03
 CCSD(T)
 CCSD(T)= -0.30005349331D+03

 The electronic state is 6-SGG.
 Alpha  occ. eigenvalues --  -20.47157 -20.47153 -20.44082 -20.44081  -1.33532
 Alpha  occ. eigenvalues --   -1.32917  -0.98829  -0.95818  -0.51893  -0.49739
 Alpha  occ. eigenvalues --   -0.49739  -0.48751  -0.48751  -0.44467  -0.30026
 Alpha  occ. eigenvalues --   -0.30026  -0.28554  -0.28554   0.15794
 Alpha virt. eigenvalues --    0.41231   0.87874   0.89264   0.89264   0.91052
 Alpha virt. eigenvalues --    0.94424   0.94424   0.98103   0.98103   1.04583
 Alpha virt. eigenvalues --    1.12370   1.12964   1.12964   1.13537   1.57379

 Mulliken charges and spin densities:
               1          2
     1  O   -0.151979   1.293568
     2  O   -0.348021   1.206432
     3  O   -0.348021   1.206432
     4  O   -0.151979   1.293568
 Sum of Mulliken charges =  -1.00000   5.00000

 Dipole moment (field-independent basis, Debye):
    X=             -0.0000    Y=              0.0000    Z=              0.0000  Tot=              0.0000
 Quadrupole moment (field-independent basis, Debye-Ang):
   XX=            -22.1941   YY=            -22.1941   ZZ=            -47.5577
   XY=             -0.0000   XZ=              0.0000   YZ=             -0.0000

 5\MP4SDQ=-300.0142701\CCSD=-300.0003833\CCSD(T)=-300.0534933\RMSD=8.47
 Normal termination of Gaussian 16 at Sun Jan 15 01:10:21 2023.
