 Gaussian 16, Revision A.03,
 Gaussian 16:  ES64L-G16RevA.03 25-Dec-2016

 ---------------------------------------------------------------
 #p ROCCSD(T)/cc-pVTZ Guess=Read SCF=(VeryTight,CDIIS,VShift=10)
 ---------------------------------------------------------------

 -------
 O2_O2_8
 -------
 Symbolic Z-matrix:
 Charge = -1 Multiplicity = 6

                         Standard orientation:
 ---------------------------------------------------------------------
 Center     Atomic      Atomic             Coordinates (Angstroms)
 Number     Number       Type             X           Y           Z
 ---------------------------------------------------------------------
      1          8           0        0.000000    0.000000    0.849210
      2          8           0        0.000000    0.000000    2.201590
      3          8           0        0.000000    0.000000   -2.201590
      4          8           0        0.000000    0.000000   -0.849210
 ---------------------------------------------------------------------

 SCF Done:  E(ROHF) =  -298.939840658     A.U. after   11 cycles
 E2 =    -0.1070238088D+01 EUMP2 =    -0.30001007874514D+03
 CCSD(T)
 CCSD(T)= -0.29999592051D+03

 The electronic state is 6-SGG.
 Alpha  occ. eigenvalues --  -20.43523 -20.43522 -20.40306 -20.40294  -1.32538
 Alpha  occ. eigenvalues --   -1.30051  -1.02079  -0.90719  -0.55316  -0.48593
 Alpha  occ. eigenvalues --   -0.48593  -0.46073  -0.46073  -0.36389  -0.29901
 Alpha  occ. eigenvalues --   -0.29901  -0.23381  -0.23380   0.13746
 Alpha virt. eigenvalues --    0.52639   0.85527   0.88307   0.93239   0.93239
 Alpha virt. eigenvalues --    0.95057   0.95057   1.00730   1.00730   1.12573
 Alpha virt. eigenvalues --    1.12645   1.19601   1.19601   1.27199   1.65489

 Mulliken charges and spin densities:
               1          2
     1  O   -0.219620   1.064250
     2  O   -0.280380   1.435750
     3  O   -0.280380   1.435750
     4  O   -0.219620   1.064250
 Sum of Mulliken charges =  -1.00000   5.00000

 Dipole moment (field-independent basis, Debye):
    X=             -0.0000    Y=              0.0000    Z=              0.0000  Tot=              0.0000
 Quadrupole moment (field-independent basis, Debye-Ang):
   XX=            -22.0846   YY=            -22.0846   ZZ=            -41.0987
   XY=             -0.0000   XZ=              0.0000   YZ=             -0.0000

 P4SDQ=-299.9534873\CCSD=-299.9415824\CCSD(T)=-299.9959205\RMSD=7.935e-
 Normal termination of Gaussian 16 at Sat Jan 14 23:27:57 2023.
