 Gaussian 16, Revision A.03,
 Gaussian 16:  ES64L-G16RevA.03 25-Dec-2016

 ---------------------------------------------------------------
 #p ROCCSD(T)/cc-pVTZ Guess=Read SCF=(VeryTight,CDIIS,VShift=10)
 ---------------------------------------------------------------

 --------
 O2_O2_54
 --------
 Symbolic Z-matrix:
 Charge = -1 Multiplicity = 6

                         Standard orientation:
 ---------------------------------------------------------------------
 Center     Atomic      Atomic             Coordinates (Angstroms)
 Number     Number       Type             X           Y           Z
 ---------------------------------------------------------------------
      1          8           0        0.000000    0.000000    1.174857
      2          8           0        0.000000    0.000000    2.527237
      3          8           0        0.000000    0.000000   -2.527237
      4          8           0        0.000000    0.000000   -1.174857
 ---------------------------------------------------------------------

 SCF Done:  E(ROHF) =  -299.004801036     A.U. after   14 cycles
 E2 =    -0.1078098256D+01 EUMP2 =    -0.30008289929205D+03
 CCSD(T)
 CCSD(T)= -0.30005548773D+03

 The electronic state is 6-SGG.
 Alpha  occ. eigenvalues --  -20.47855 -20.47852 -20.44246 -20.44245  -1.33763
 Alpha  occ. eigenvalues --   -1.33293  -0.98724  -0.96329  -0.51560  -0.50004
 Alpha  occ. eigenvalues --   -0.50004  -0.49203  -0.49203  -0.45257  -0.30152
 Alpha  occ. eigenvalues --   -0.30152  -0.28999  -0.28999   0.15971
 Alpha virt. eigenvalues --    0.40297   0.88168   0.88971   0.88971   0.91392
 Alpha virt. eigenvalues --    0.94227   0.94227   0.98021   0.98021   1.00426
 Alpha virt. eigenvalues --    1.11807   1.11807   1.12266   1.13208   1.54610

 Mulliken charges and spin densities:
               1          2
     1  O   -0.149041   1.313720
     2  O   -0.350959   1.186280
     3  O   -0.350959   1.186280
     4  O   -0.149041   1.313720
 Sum of Mulliken charges =  -1.00000   5.00000

 Dipole moment (field-independent basis, Debye):
    X=             -0.0000    Y=              0.0000    Z=              0.0000  Tot=              0.0000
 Quadrupole moment (field-independent basis, Debye-Ang):
   XX=            -22.1964   YY=            -22.1964   ZZ=            -48.5280
   XY=             -0.0000   XZ=              0.0000   YZ=             -0.0000

 MP4SDQ=-300.0164628\CCSD=-300.0025384\CCSD(T)=-300.0554877\RMSD=4.682e
 Normal termination of Gaussian 16 at Sun Jan 15 01:27:43 2023.
