 Gaussian 16, Revision A.03,
 Gaussian 16:  ES64L-G16RevA.03 25-Dec-2016

 ---------------------------------------------------------------
 #p ROCCSD(T)/cc-pVTZ Guess=Read SCF=(VeryTight,CDIIS,VShift=10)
 ---------------------------------------------------------------

 ---------
 O2_O2_229
 ---------
 Symbolic Z-matrix:
 Charge = -1 Multiplicity = 6

                         Standard orientation:
 ---------------------------------------------------------------------
 Center     Atomic      Atomic             Coordinates (Angstroms)
 Number     Number       Type             X           Y           Z
 ---------------------------------------------------------------------
      1          8           0        0.000000    0.000000    2.413733
      2          8           0        0.000000    0.000000    3.766113
      3          8           0        0.000000    0.000000   -3.766113
      4          8           0        0.000000    0.000000   -2.413733
 ---------------------------------------------------------------------

 SCF Done:  E(ROHF) =  -298.984159703     A.U. after    9 cycles
 E2 =    -0.1077740608D+01 EUMP2 =    -0.30006190031177D+03
 CCSD(T)
 CCSD(T)= -0.30003218909D+03

 The electronic state is 6-SGG.
 Alpha  occ. eigenvalues --  -20.50478 -20.50477 -20.48258 -20.48257  -1.36583
 Alpha  occ. eigenvalues --   -1.36581  -1.00656  -1.00472  -0.52752  -0.52752
 Alpha  occ. eigenvalues --   -0.52750  -0.52750  -0.52002  -0.51713  -0.32818
 Alpha  occ. eigenvalues --   -0.32818  -0.32815  -0.32815   0.19187
 Alpha virt. eigenvalues --    0.28438   0.84525   0.86301   0.89811   0.89811
 Alpha virt. eigenvalues --    0.89850   0.89850   0.94040   0.95301   0.99096
 Alpha virt. eigenvalues --    0.99096   0.99199   0.99199   1.10166   1.10169

 Mulliken charges and spin densities:
               1          2
     1  O   -0.195975   1.313058
     2  O   -0.304025   1.186942
     3  O   -0.304025   1.186942
     4  O   -0.195975   1.313058
 Sum of Mulliken charges =  -1.00000   5.00000

 Dipole moment (field-independent basis, Debye):
    X=             -0.0000    Y=              0.0000    Z=             -0.0000  Tot=              0.0000
 Quadrupole moment (field-independent basis, Debye-Ang):
   XX=            -22.1670   YY=            -22.1670   ZZ=            -77.7491
   XY=             -0.0000   XZ=              0.0000   YZ=             -0.0000

 P4SDQ=-299.9924119\CCSD=-299.9799464\CCSD(T)=-300.0321891\RMSD=2.385e-
 Normal termination of Gaussian 16 at Mon Jan 16 04:06:00 2023.
