 Gaussian 16, Revision A.03,
 Gaussian 16:  ES64L-G16RevA.03 25-Dec-2016

 ---------------------------------------------------------------
 #p ROCCSD(T)/cc-pVTZ Guess=Read SCF=(VeryTight,CDIIS,VShift=10)
 ---------------------------------------------------------------

 ---------
 O2_O2_210
 ---------
 Symbolic Z-matrix:
 Charge = -1 Multiplicity = 6

                         Standard orientation:
 ---------------------------------------------------------------------
 Center     Atomic      Atomic             Coordinates (Angstroms)
 Number     Number       Type             X           Y           Z
 ---------------------------------------------------------------------
      1          8           0        0.000000    0.000000    2.279227
      2          8           0        0.000000    0.000000    3.631607
      3          8           0        0.000000    0.000000   -3.631607
      4          8           0        0.000000    0.000000   -2.279227
 ---------------------------------------------------------------------

 SCF Done:  E(ROHF) =  -298.985808447     A.U. after   10 cycles
 E2 =    -0.1077251219D+01 EUMP2 =    -0.30006305966614D+03
 CCSD(T)
 CCSD(T)= -0.30003373044D+03

 The electronic state is 6-SGG.
 Alpha  occ. eigenvalues --  -20.50479 -20.50478 -20.48042 -20.48041  -1.36442
 Alpha  occ. eigenvalues --   -1.36440  -1.00496  -1.00308  -0.52628  -0.52628
 Alpha  occ. eigenvalues --   -0.52625  -0.52625  -0.51828  -0.51469  -0.32669
 Alpha  occ. eigenvalues --   -0.32669  -0.32662  -0.32662   0.19062
 Alpha virt. eigenvalues --    0.29100   0.83886   0.87191   0.89947   0.89947
 Alpha virt. eigenvalues --    0.90033   0.90033   0.93815   0.96239   0.99218
 Alpha virt. eigenvalues --    0.99218   0.99436   0.99436   1.10324   1.10324

 Mulliken charges and spin densities:
               1          2
     1  O   -0.191899   1.318457
     2  O   -0.308101   1.181543
     3  O   -0.308101   1.181543
     4  O   -0.191899   1.318457
 Sum of Mulliken charges =  -1.00000   5.00000

 Dipole moment (field-independent basis, Debye):
    X=             -0.0000    Y=              0.0000    Z=              0.0000  Tot=              0.0000
 Quadrupole moment (field-independent basis, Debye-Ang):
   XX=            -22.1708   YY=            -22.1708   ZZ=            -73.8897
   XY=             -0.0000   XZ=              0.0000   YZ=             -0.0000

 97\MP4SDQ=-299.9941037\CCSD=-299.9815155\CCSD(T)=-300.0337304\RMSD=4.1
 Normal termination of Gaussian 16 at Sun Jan 15 08:20:44 2023.
