 Gaussian 16, Revision A.03,
 Gaussian 16:  ES64L-G16RevA.03 25-Dec-2016

 ---------------------------------------------------------------
 #p ROCCSD(T)/cc-pVTZ Guess=Read SCF=(VeryTight,CDIIS,VShift=10)
 ---------------------------------------------------------------

 --------
 O2_O2_70
 --------
 Symbolic Z-matrix:
 Charge = -1 Multiplicity = 6

                         Standard orientation:
 ---------------------------------------------------------------------
 Center     Atomic      Atomic             Coordinates (Angstroms)
 Number     Number       Type             X           Y           Z
 ---------------------------------------------------------------------
      1          8           0        0.000000    0.000000    1.288126
      2          8           0        0.000000    0.000000    2.640506
      3          8           0        0.000000    0.000000   -2.640506
      4          8           0        0.000000    0.000000   -1.288126
 ---------------------------------------------------------------------

 SCF Done:  E(ROHF) =  -299.007986153     A.U. after   14 cycles
 E2 =    -0.1075955358D+01 EUMP2 =    -0.30008394151160D+03
 CCSD(T)
 CCSD(T)= -0.30005728205D+03

 The electronic state is 6-SGG.
 Alpha  occ. eigenvalues --  -20.49120 -20.49118 -20.44713 -20.44713  -1.34292
 Alpha  occ. eigenvalues --   -1.34041  -0.98725  -0.97279  -0.51053  -0.50598
 Alpha  occ. eigenvalues --   -0.50598  -0.50114  -0.50114  -0.46675  -0.30512
 Alpha  occ. eigenvalues --   -0.30512  -0.29839  -0.29839   0.16314
 Alpha virt. eigenvalues --    0.38646   0.88742   0.88823   0.88823   0.91567
 Alpha virt. eigenvalues --    0.92231   0.93698   0.93698   0.97965   0.97965
 Alpha virt. eigenvalues --    1.09219   1.09219   1.11998   1.12675   1.47487

 Mulliken charges and spin densities:
               1          2
     1  O   -0.147166   1.346683
     2  O   -0.352834   1.153317
     3  O   -0.352834   1.153317
     4  O   -0.147166   1.346683
 Sum of Mulliken charges =  -1.00000   5.00000

 Dipole moment (field-independent basis, Debye):
    X=             -0.0000    Y=              0.0000    Z=              0.0000  Tot=              0.0000
 Quadrupole moment (field-independent basis, Debye-Ang):
   XX=            -22.1967   YY=            -22.1967   ZZ=            -50.6264
   XY=             -0.0000   XZ=              0.0000   YZ=             -0.0000

 5\MP4SDQ=-300.0186306\CCSD=-300.0046292\CCSD(T)=-300.057282\RMSD=1.179
 Normal termination of Gaussian 16 at Sun Jan 15 02:10:47 2023.
