 Gaussian 16, Revision A.03,
 Gaussian 16:  ES64L-G16RevA.03 25-Dec-2016

 ---------------------------------------------------------------
 #p ROCCSD(T)/cc-pVTZ Guess=Read SCF=(VeryTight,CDIIS,VShift=10)
 ---------------------------------------------------------------

 ---------
 O2_O2_115
 ---------
 Symbolic Z-matrix:
 Charge = -1 Multiplicity = 6

                         Standard orientation:
 ---------------------------------------------------------------------
 Center     Atomic      Atomic             Coordinates (Angstroms)
 Number     Number       Type             X           Y           Z
 ---------------------------------------------------------------------
      1          8           0        0.000000    0.000000    1.606694
      2          8           0        0.000000    0.000000    2.959074
      3          8           0        0.000000    0.000000   -2.959074
      4          8           0        0.000000    0.000000   -1.606694
 ---------------------------------------------------------------------

 SCF Done:  E(ROHF) =  -299.006558675     A.U. after   11 cycles
 E2 =    -0.1073556304D+01 EUMP2 =    -0.30008011497858D+03
 CCSD(T)
 CCSD(T)= -0.30005383066D+03

 The electronic state is 6-SGG.
 Alpha  occ. eigenvalues --  -20.51032 -20.51031 -20.46355 -20.46355  -1.35592
 Alpha  occ. eigenvalues --   -1.35548  -0.99499  -0.99058  -0.51976  -0.51976
 Alpha  occ. eigenvalues --   -0.51868  -0.51868  -0.50860  -0.49165  -0.31707
 Alpha  occ. eigenvalues --   -0.31707  -0.31545  -0.31545   0.17208
 Alpha virt. eigenvalues --    0.35295   0.78902   0.89720   0.89720   0.89845
 Alpha virt. eigenvalues --    0.91924   0.91924   0.92275   0.98501   0.98501
 Alpha virt. eigenvalues --    1.03363   1.03363   1.11171   1.11441   1.23038

 Mulliken charges and spin densities:
               1          2
     1  O   -0.159159   1.374076
     2  O   -0.340841   1.125924
     3  O   -0.340841   1.125924
     4  O   -0.159159   1.374076
 Sum of Mulliken charges =  -1.00000   5.00000

 Dipole moment (field-independent basis, Debye):
    X=             -0.0000    Y=              0.0000    Z=              0.0000  Tot=              0.0000
 Quadrupole moment (field-independent basis, Debye-Ang):
   XX=            -22.1984   YY=            -22.1984   ZZ=            -56.6541
   XY=             -0.0000   XZ=              0.0000   YZ=             -0.0000

 \MP4SDQ=-300.0156983\CCSD=-300.0016787\CCSD(T)=-300.0538307\RMSD=1.723
 Normal termination of Gaussian 16 at Sun Jan 15 04:09:05 2023.
