 Gaussian 16, Revision A.03,
 Gaussian 16:  ES64L-G16RevA.03 25-Dec-2016

 ---------------------------------------------------------------
 #p ROCCSD(T)/cc-pVTZ Guess=Read SCF=(VeryTight,CDIIS,VShift=10)
 ---------------------------------------------------------------

 ---------
 O2_O2_283
 ---------
 Symbolic Z-matrix:
 Charge = -1 Multiplicity = 6

                         Standard orientation:
 ---------------------------------------------------------------------
 Center     Atomic      Atomic             Coordinates (Angstroms)
 Number     Number       Type             X           Y           Z
 ---------------------------------------------------------------------
      1          8           0        0.000000    0.000000    2.796015
      2          8           0        0.000000    0.000000    4.148395
      3          8           0        0.000000    0.000000   -4.148395
      4          8           0        0.000000    0.000000   -2.796015
 ---------------------------------------------------------------------

 SCF Done:  E(ROHF) =  -298.982478244     A.U. after    9 cycles
 E2 =    -0.1078707439D+01 EUMP2 =    -0.30006118568273D+03
 CCSD(T)
 CCSD(T)= -0.30003059411D+03

 The electronic state is 6-SGG.
 Alpha  occ. eigenvalues --  -20.50651 -20.50650 -20.48885 -20.48884  -1.37005
 Alpha  occ. eigenvalues --   -1.37005  -1.01109  -1.00930  -0.53151  -0.53151
 Alpha  occ. eigenvalues --   -0.53150  -0.53150  -0.52450  -0.52268  -0.33269
 Alpha  occ. eigenvalues --   -0.33269  -0.33269  -0.33269   0.19322
 Alpha virt. eigenvalues --    0.27161   0.84777   0.84980   0.89390   0.89390
 Alpha virt. eigenvalues --    0.89395   0.89395   0.93963   0.94229   0.98669
 Alpha virt. eigenvalues --    0.98669   0.98686   0.98686   1.09732   1.09733

 Mulliken charges and spin densities:
               1          2
     1  O   -0.206269   1.300879
     2  O   -0.293731   1.199121
     3  O   -0.293731   1.199121
     4  O   -0.206269   1.300879
 Sum of Mulliken charges =  -1.00000   5.00000

 Dipole moment (field-independent basis, Debye):
    X=             -0.0000    Y=              0.0000    Z=             -0.0000  Tot=              0.0000
 Quadrupole moment (field-independent basis, Debye-Ang):
   XX=            -22.1621   YY=            -22.1621   ZZ=            -89.4747
   XY=             -0.0000   XZ=              0.0000   YZ=             -0.0000

 DQ=-299.9906392\CCSD=-299.9783241\CCSD(T)=-300.0305941\RMSD=6.566e-09\
 Normal termination of Gaussian 16 at Mon Jan 16 05:10:32 2023.
