 Gaussian 16, Revision A.03,
 Gaussian 16:  ES64L-G16RevA.03 25-Dec-2016

 ---------------------------------------------------------------
 #p ROCCSD(T)/cc-pVTZ Guess=Read SCF=(VeryTight,CDIIS,VShift=10)
 ---------------------------------------------------------------

 --------
 O2_O2_63
 --------
 Symbolic Z-matrix:
 Charge = -1 Multiplicity = 6

                         Standard orientation:
 ---------------------------------------------------------------------
 Center     Atomic      Atomic             Coordinates (Angstroms)
 Number     Number       Type             X           Y           Z
 ---------------------------------------------------------------------
      1          8           0        0.000000    0.000000    1.238571
      2          8           0        0.000000    0.000000    2.590951
      3          8           0        0.000000    0.000000   -2.590951
      4          8           0        0.000000    0.000000   -1.238571
 ---------------------------------------------------------------------

 SCF Done:  E(ROHF) =  -299.006998424     A.U. after   14 cycles
 E2 =    -0.1076816852D+01 EUMP2 =    -0.30008381527611D+03
 CCSD(T)
 CCSD(T)= -0.30005684201D+03

 The electronic state is 6-SGG.
 Alpha  occ. eigenvalues --  -20.48614 -20.48611 -20.44494 -20.44494  -1.34061
 Alpha  occ. eigenvalues --   -1.33730  -0.98691  -0.96894  -0.51235  -0.50341
 Alpha  occ. eigenvalues --   -0.50341  -0.49735  -0.49735  -0.46110  -0.30343
 Alpha  occ. eigenvalues --   -0.30343  -0.29494  -0.29494   0.16172
 Alpha virt. eigenvalues --    0.39303   0.88503   0.88814   0.88814   0.91721
 Alpha virt. eigenvalues --    0.93941   0.93941   0.95403   0.97970   0.97970
 Alpha virt. eigenvalues --    1.10338   1.10338   1.12120   1.12894   1.50753

 Mulliken charges and spin densities:
               1          2
     1  O   -0.147348   1.334167
     2  O   -0.352652   1.165833
     3  O   -0.352652   1.165833
     4  O   -0.147348   1.334167
 Sum of Mulliken charges =  -1.00000   5.00000

 Dipole moment (field-independent basis, Debye):
    X=             -0.0000    Y=             -0.0000    Z=              0.0000  Tot=              0.0000
 Quadrupole moment (field-independent basis, Debye-Ang):
   XX=            -22.1970   YY=            -22.1970   ZZ=            -49.7222
   XY=             -0.0000   XZ=              0.0000   YZ=             -0.0000

 3\MP4SDQ=-300.0180368\CCSD=-300.0040698\CCSD(T)=-300.056842\RMSD=2.674
 Normal termination of Gaussian 16 at Sun Jan 15 01:50:15 2023.
