 Gaussian 16, Revision A.03,
 Gaussian 16:  ES64L-G16RevA.03 25-Dec-2016

 ---------------------------------------------------------------
 #p ROCCSD(T)/cc-pVTZ Guess=Read SCF=(VeryTight,CDIIS,VShift=10)
 ---------------------------------------------------------------

 ---------
 O2_O2_209
 ---------
 Symbolic Z-matrix:
 Charge = -1 Multiplicity = 6

                         Standard orientation:
 ---------------------------------------------------------------------
 Center     Atomic      Atomic             Coordinates (Angstroms)
 Number     Number       Type             X           Y           Z
 ---------------------------------------------------------------------
      1          8           0        0.000000    0.000000    2.272148
      2          8           0        0.000000    0.000000    3.624528
      3          8           0        0.000000    0.000000   -3.624528
      4          8           0        0.000000    0.000000   -2.272148
 ---------------------------------------------------------------------

 SCF Done:  E(ROHF) =  -298.985920935     A.U. after   11 cycles
 E2 =    -0.1077222229D+01 EUMP2 =    -0.30006314316329D+03
 CCSD(T)
 CCSD(T)= -0.30003383551D+03

 The electronic state is 6-SGG.
 Alpha  occ. eigenvalues --  -20.50481 -20.50480 -20.48031 -20.48030  -1.36435
 Alpha  occ. eigenvalues --   -1.36433  -1.00488  -1.00299  -0.52622  -0.52622
 Alpha  occ. eigenvalues --   -0.52619  -0.52619  -0.51819  -0.51456  -0.32661
 Alpha  occ. eigenvalues --   -0.32661  -0.32655  -0.32655   0.19053
 Alpha virt. eigenvalues --    0.29140   0.83838   0.87244   0.89953   0.89953
 Alpha virt. eigenvalues --    0.90043   0.90043   0.93798   0.96306   0.99223
 Alpha virt. eigenvalues --    0.99223   0.99450   0.99450   1.10332   1.10333

 Mulliken charges and spin densities:
               1          2
     1  O   -0.191676   1.318774
     2  O   -0.308324   1.181226
     3  O   -0.308324   1.181226
     4  O   -0.191676   1.318774
 Sum of Mulliken charges =  -1.00000   5.00000

 Dipole moment (field-independent basis, Debye):
    X=             -0.0000    Y=              0.0000    Z=              0.0000  Tot=              0.0000
 Quadrupole moment (field-independent basis, Debye-Ang):
   XX=            -22.1710   YY=            -22.1710   ZZ=            -73.6897
   XY=             -0.0000   XZ=              0.0000   YZ=             -0.0000

 2\MP4SDQ=-299.9942188\CCSD=-299.9816224\CCSD(T)=-300.0338355\RMSD=6.36
 Normal termination of Gaussian 16 at Sun Jan 15 08:18:07 2023.
