 Gaussian 16, Revision A.03,
 Gaussian 16:  ES64L-G16RevA.03 25-Dec-2016

 ---------------------------------------------------------------
 #p ROCCSD(T)/cc-pVTZ Guess=Read SCF=(VeryTight,CDIIS,VShift=10)
 ---------------------------------------------------------------

 ---------
 O2_O2_191
 ---------
 Symbolic Z-matrix:
 Charge = -1 Multiplicity = 6

                         Standard orientation:
 ---------------------------------------------------------------------
 Center     Atomic      Atomic             Coordinates (Angstroms)
 Number     Number       Type             X           Y           Z
 ---------------------------------------------------------------------
      1          8           0        0.000000    0.000000    2.144720
      2          8           0        0.000000    0.000000    3.497100
      3          8           0        0.000000    0.000000   -3.497100
      4          8           0        0.000000    0.000000   -2.144720
 ---------------------------------------------------------------------

 SCF Done:  E(ROHF) =  -298.988486171     A.U. after   12 cycles
 E2 =    -0.1076638182D+01 EUMP2 =    -0.30006512435226D+03
 CCSD(T)
 CCSD(T)= -0.30003623293D+03

 The electronic state is 6-SGG.
 Alpha  occ. eigenvalues --  -20.50552 -20.50551 -20.47836 -20.47836  -1.36318
 Alpha  occ. eigenvalues --   -1.36314  -1.00346  -1.00148  -0.52529  -0.52529
 Alpha  occ. eigenvalues --   -0.52522  -0.52522  -0.51646  -0.51186  -0.32537
 Alpha  occ. eigenvalues --   -0.32537  -0.32523  -0.32523   0.18859
 Alpha virt. eigenvalues --    0.29948   0.82697   0.88227   0.90053   0.90053
 Alpha virt. eigenvalues --    0.90239   0.90239   0.93420   0.98015   0.99285
 Alpha virt. eigenvalues --    0.99285   0.99743   0.99743   1.10470   1.10483

 Mulliken charges and spin densities:
               1          2
     1  O   -0.187488   1.325260
     2  O   -0.312512   1.174740
     3  O   -0.312512   1.174740
     4  O   -0.187488   1.325260
 Sum of Mulliken charges =  -1.00000   5.00000

 Dipole moment (field-independent basis, Debye):
    X=             -0.0000    Y=              0.0000    Z=              0.0000  Tot=              0.0000
 Quadrupole moment (field-independent basis, Debye-Ang):
   XX=            -22.1764   YY=            -22.1764   ZZ=            -70.1347
   XY=             -0.0000   XZ=              0.0000   YZ=             -0.0000

 \MP4SDQ=-299.9968408\CCSD=-299.98406\CCSD(T)=-300.0362329\RMSD=7.736e-
 Normal termination of Gaussian 16 at Sun Jan 15 07:29:46 2023.
