 Gaussian 16, Revision A.03,
 Gaussian 16:  ES64L-G16RevA.03 25-Dec-2016

 ---------------------------------------------------------------
 #p ROCCSD(T)/cc-pVTZ Guess=Read SCF=(VeryTight,CDIIS,VShift=10)
 ---------------------------------------------------------------

 ---------
 O2_O2_180
 ---------
 Symbolic Z-matrix:
 Charge = -1 Multiplicity = 6

                         Standard orientation:
 ---------------------------------------------------------------------
 Center     Atomic      Atomic             Coordinates (Angstroms)
 Number     Number       Type             X           Y           Z
 ---------------------------------------------------------------------
      1          8           0        0.000000    0.000000    2.066848
      2          8           0        0.000000    0.000000    3.419228
      3          8           0        0.000000    0.000000   -3.419228
      4          8           0        0.000000    0.000000   -2.066848
 ---------------------------------------------------------------------

 SCF Done:  E(ROHF) =  -298.990608600     A.U. after   11 cycles
 E2 =    -0.1076215302D+01 EUMP2 =    -0.30006682390222D+03
 CCSD(T)
 CCSD(T)= -0.30003822264D+03

 The electronic state is 6-SGG.
 Alpha  occ. eigenvalues --  -20.50636 -20.50635 -20.47717 -20.47716  -1.36254
 Alpha  occ. eigenvalues --   -1.36250  -1.00262  -1.00056  -0.52485  -0.52485
 Alpha  occ. eigenvalues --   -0.52474  -0.52474  -0.51537  -0.50997  -0.32468
 Alpha  occ. eigenvalues --   -0.32468  -0.32447  -0.32447   0.18696
 Alpha virt. eigenvalues --    0.30542   0.81737   0.88785   0.90093   0.90093
 Alpha virt. eigenvalues --    0.90376   0.90376   0.93147   0.99285   0.99285
 Alpha virt. eigenvalues --    0.99672   0.99972   0.99972   1.10550   1.10576

 Mulliken charges and spin densities:
               1          2
     1  O   -0.184660   1.330293
     2  O   -0.315340   1.169707
     3  O   -0.315340   1.169707
     4  O   -0.184660   1.330293
 Sum of Mulliken charges =  -1.00000   5.00000

 Dipole moment (field-independent basis, Debye):
    X=             -0.0000    Y=              0.0000    Z=             -0.0000  Tot=              0.0000
 Quadrupole moment (field-independent basis, Debye-Ang):
   XX=            -22.1804   YY=            -22.1804   ZZ=            -68.0031
   XY=             -0.0000   XZ=              0.0000   YZ=             -0.0000

 39\MP4SDQ=-299.9990112\CCSD=-299.9860793\CCSD(T)=-300.0382226\RMSD=9.0
 Normal termination of Gaussian 16 at Sun Jan 15 06:58:32 2023.
