 Gaussian 16, Revision A.03,
 Gaussian 16:  ES64L-G16RevA.03 25-Dec-2016

 ---------------------------------------------------------------
 #p ROCCSD(T)/cc-pVTZ Guess=Read SCF=(VeryTight,CDIIS,VShift=10)
 ---------------------------------------------------------------

 ---------
 O2_O2_243
 ---------
 Symbolic Z-matrix:
 Charge = -1 Multiplicity = 6

                         Standard orientation:
 ---------------------------------------------------------------------
 Center     Atomic      Atomic             Coordinates (Angstroms)
 Number     Number       Type             X           Y           Z
 ---------------------------------------------------------------------
      1          8           0        0.000000    0.000000    2.512843
      2          8           0        0.000000    0.000000    3.865223
      3          8           0        0.000000    0.000000   -3.865223
      4          8           0        0.000000    0.000000   -2.512843
 ---------------------------------------------------------------------

 SCF Done:  E(ROHF) =  -298.983414095     A.U. after   11 cycles
 E2 =    -0.1078041362D+01 EUMP2 =    -0.30006145545763D+03
 CCSD(T)
 CCSD(T)= -0.30003148870D+03

 The electronic state is 6-SGG.
 Alpha  occ. eigenvalues --  -20.50506 -20.50506 -20.48422 -20.48422  -1.36692
 Alpha  occ. eigenvalues --   -1.36691  -1.00776  -1.00594  -0.52853  -0.52853
 Alpha  occ. eigenvalues --   -0.52852  -0.52852  -0.52125  -0.51873  -0.32935
 Alpha  occ. eigenvalues --   -0.32935  -0.32933  -0.32933   0.19245
 Alpha virt. eigenvalues --    0.28039   0.84744   0.85807   0.89702   0.89702
 Alpha virt. eigenvalues --    0.89724   0.89724   0.94097   0.94886   0.98989
 Alpha virt. eigenvalues --    0.98989   0.99049   0.99049   1.10049   1.10053

 Mulliken charges and spin densities:
               1          2
     1  O   -0.198843   1.309543
     2  O   -0.301157   1.190457
     3  O   -0.301157   1.190457
     4  O   -0.198843   1.309543
 Sum of Mulliken charges =  -1.00000   5.00000

 Dipole moment (field-independent basis, Debye):
    X=             -0.0000    Y=              0.0000    Z=             -0.0000  Tot=              0.0000
 Quadrupole moment (field-independent basis, Debye-Ang):
   XX=            -22.1651   YY=            -22.1651   ZZ=            -80.6718
   XY=             -0.0000   XZ=              0.0000   YZ=             -0.0000

 P4SDQ=-299.9916396\CCSD=-299.9792335\CCSD(T)=-300.0314887\RMSD=9.202e-
 Normal termination of Gaussian 16 at Mon Jan 16 04:22:25 2023.
