 Gaussian 16, Revision A.03,
 Gaussian 16:  ES64L-G16RevA.03 25-Dec-2016

 ---------------------------------------------------------------
 #p ROCCSD(T)/cc-pVTZ Guess=Read SCF=(VeryTight,CDIIS,VShift=10)
 ---------------------------------------------------------------

 ---------
 O2_O2_178
 ---------
 Symbolic Z-matrix:
 Charge = -1 Multiplicity = 6

                         Standard orientation:
 ---------------------------------------------------------------------
 Center     Atomic      Atomic             Coordinates (Angstroms)
 Number     Number       Type             X           Y           Z
 ---------------------------------------------------------------------
      1          8           0        0.000000    0.000000    2.052690
      2          8           0        0.000000    0.000000    3.405070
      3          8           0        0.000000    0.000000   -3.405070
      4          8           0        0.000000    0.000000   -2.052690
 ---------------------------------------------------------------------

 SCF Done:  E(ROHF) =  -298.991041189     A.U. after   14 cycles
 E2 =    -0.1076132634D+01 EUMP2 =    -0.30006717382291D+03
 CCSD(T)
 CCSD(T)= -0.30003862909D+03

 The electronic state is 6-SGG.
 Alpha  occ. eigenvalues --  -20.50655 -20.50654 -20.47694 -20.47694  -1.36243
 Alpha  occ. eigenvalues --   -1.36238  -1.00247  -1.00039  -0.52478  -0.52478
 Alpha  occ. eigenvalues --   -0.52466  -0.52466  -0.51516  -0.50960  -0.32456
 Alpha  occ. eigenvalues --   -0.32456  -0.32434  -0.32434   0.18663
 Alpha virt. eigenvalues --    0.30659   0.81545   0.88877   0.90099   0.90099
 Alpha virt. eigenvalues --    0.90403   0.90403   0.93097   0.99281   0.99281
 Alpha virt. eigenvalues --    1.00020   1.00020   1.00036   1.10565   1.10593

 Mulliken charges and spin densities:
               1          2
     1  O   -0.184112   1.331324
     2  O   -0.315888   1.168676
     3  O   -0.315888   1.168676
     4  O   -0.184112   1.331324
 Sum of Mulliken charges =  -1.00000   5.00000

 Dipole moment (field-independent basis, Debye):
    X=             -0.0000    Y=              0.0000    Z=             -0.0000  Tot=              0.0000
 Quadrupole moment (field-independent basis, Debye-Ang):
   XX=            -22.1812   YY=            -22.1812   ZZ=            -67.6190
   XY=             -0.0000   XZ=              0.0000   YZ=             -0.0000

 38\MP4SDQ=-299.999454\CCSD=-299.9864914\CCSD(T)=-300.0386291\RMSD=1.57
 Normal termination of Gaussian 16 at Sun Jan 15 06:53:22 2023.
