 Gaussian 16, Revision A.03,
 Gaussian 16:  ES64L-G16RevA.03 25-Dec-2016

 ---------------------------------------------------------------
 #p ROCCSD(T)/cc-pVTZ Guess=Read SCF=(VeryTight,CDIIS,VShift=10)
 ---------------------------------------------------------------

 ---------
 O2_O2_170
 ---------
 Symbolic Z-matrix:
 Charge = -1 Multiplicity = 6

                         Standard orientation:
 ---------------------------------------------------------------------
 Center     Atomic      Atomic             Coordinates (Angstroms)
 Number     Number       Type             X           Y           Z
 ---------------------------------------------------------------------
      1          8           0        0.000000    0.000000    1.996055
      2          8           0        0.000000    0.000000    3.348435
      3          8           0        0.000000    0.000000   -3.348435
      4          8           0        0.000000    0.000000   -1.996055
 ---------------------------------------------------------------------

 SCF Done:  E(ROHF) =  -298.992907268     A.U. after   13 cycles
 E2 =    -0.1075784221D+01 EUMP2 =    -0.30006869148903D+03
 CCSD(T)
 CCSD(T)= -0.30004038655D+03

 The electronic state is 6-SGG.
 Alpha  occ. eigenvalues --  -20.50740 -20.50739 -20.47600 -20.47600  -1.36199
 Alpha  occ. eigenvalues --   -1.36193  -1.00185  -0.99968  -0.52452  -0.52452
 Alpha  occ. eigenvalues --   -0.52436  -0.52436  -0.51434  -0.50804  -0.32407
 Alpha  occ. eigenvalues --   -0.32407  -0.32378  -0.32378   0.18517
 Alpha virt. eigenvalues --    0.31156   0.80743   0.89206   0.90111   0.90111
 Alpha virt. eigenvalues --    0.90518   0.90518   0.92901   0.99252   0.99252
 Alpha virt. eigenvalues --    1.00232   1.00232   1.01705   1.10622   1.10663

 Mulliken charges and spin densities:
               1          2
     1  O   -0.181788   1.335863
     2  O   -0.318212   1.164137
     3  O   -0.318212   1.164137
     4  O   -0.181788   1.335863
 Sum of Mulliken charges =  -1.00000   5.00000

 Dipole moment (field-independent basis, Debye):
    X=             -0.0000    Y=              0.0000    Z=             -0.0000  Tot=              0.0000
 Quadrupole moment (field-independent basis, Debye-Ang):
   XX=            -22.1845   YY=            -22.1845   ZZ=            -66.0948
   XY=             -0.0000   XZ=              0.0000   YZ=             -0.0000

 MP4SDQ=-300.0013663\CCSD=-299.9882709\CCSD(T)=-300.0403866\RMSD=5.248e
 Normal termination of Gaussian 16 at Sun Jan 15 06:33:01 2023.
