 Gaussian 16, Revision A.03,
 Gaussian 16:  ES64L-G16RevA.03 25-Dec-2016

 ---------------------------------------------------------------
 #p ROCCSD(T)/cc-pVTZ Guess=Read SCF=(VeryTight,CDIIS,VShift=10)
 ---------------------------------------------------------------

 ---------
 O2_O2_267
 ---------
 Symbolic Z-matrix:
 Charge = -1 Multiplicity = 6

                         Standard orientation:
 ---------------------------------------------------------------------
 Center     Atomic      Atomic             Coordinates (Angstroms)
 Number     Number       Type             X           Y           Z
 ---------------------------------------------------------------------
      1          8           0        0.000000    0.000000    2.682746
      2          8           0        0.000000    0.000000    4.035126
      3          8           0        0.000000    0.000000   -4.035126
      4          8           0        0.000000    0.000000   -2.682746
 ---------------------------------------------------------------------

 SCF Done:  E(ROHF) =  -298.982710771     A.U. after    9 cycles
 E2 =    -0.1078468181D+01 EUMP2 =    -0.30006117895256D+03
 CCSD(T)
 CCSD(T)= -0.30003082026D+03

 The electronic state is 6-SGG.
 Alpha  occ. eigenvalues --  -20.50587 -20.50586 -20.48703 -20.48703  -1.36882
 Alpha  occ. eigenvalues --   -1.36881  -1.00979  -1.00799  -0.53032  -0.53032
 Alpha  occ. eigenvalues --   -0.53032  -0.53032  -0.52325  -0.52120  -0.33138
 Alpha  occ. eigenvalues --   -0.33138  -0.33137  -0.33137   0.19302
 Alpha virt. eigenvalues --    0.27477   0.84829   0.85233   0.89513   0.89513
 Alpha virt. eigenvalues --    0.89521   0.89521   0.94050   0.94437   0.98796
 Alpha virt. eigenvalues --    0.98796   0.98823   0.98823   1.09855   1.09858

 Mulliken charges and spin densities:
               1          2
     1  O   -0.203441   1.304142
     2  O   -0.296559   1.195858
     3  O   -0.296559   1.195858
     4  O   -0.203441   1.304142
 Sum of Mulliken charges =  -1.00000   5.00000

 Dipole moment (field-independent basis, Debye):
    X=             -0.0000    Y=              0.0000    Z=              0.0000  Tot=              0.0000
 Quadrupole moment (field-independent basis, Debye-Ang):
   XX=            -22.1630   YY=            -22.1630   ZZ=            -85.8678
   XY=             -0.0000   XZ=              0.0000   YZ=             -0.0000

 SDQ=-299.9908958\CCSD=-299.9785538\CCSD(T)=-300.0308203\RMSD=8.618e-09
 Normal termination of Gaussian 16 at Mon Jan 16 04:50:30 2023.
