 Gaussian 16, Revision A.03,
 Gaussian 16:  ES64L-G16RevA.03 25-Dec-2016

 ---------------------------------------------------------------
 #p ROCCSD(T)/cc-pVTZ Guess=Read SCF=(VeryTight,CDIIS,VShift=10)
 ---------------------------------------------------------------

 ---------
 O2_O2_260
 ---------
 Symbolic Z-matrix:
 Charge = -1 Multiplicity = 6

                         Standard orientation:
 ---------------------------------------------------------------------
 Center     Atomic      Atomic             Coordinates (Angstroms)
 Number     Number       Type             X           Y           Z
 ---------------------------------------------------------------------
      1          8           0        0.000000    0.000000    2.633191
      2          8           0        0.000000    0.000000    3.985571
      3          8           0        0.000000    0.000000   -3.985571
      4          8           0        0.000000    0.000000   -2.633191
 ---------------------------------------------------------------------

 SCF Done:  E(ROHF) =  -298.982860989     A.U. after   15 cycles
 E2 =    -0.1078353295D+01 EUMP2 =    -0.30006121428377D+03
 CCSD(T)
 CCSD(T)= -0.30003096433D+03

 The electronic state is 6-SGG.
 Alpha  occ. eigenvalues --  -20.50561 -20.50560 -20.48622 -20.48622  -1.36827
 Alpha  occ. eigenvalues --   -1.36826  -1.00920  -1.00740  -0.52980  -0.52980
 Alpha  occ. eigenvalues --   -0.52979  -0.52979  -0.52268  -0.52051  -0.33079
 Alpha  occ. eigenvalues --   -0.33079  -0.33078  -0.33078   0.19289
 Alpha virt. eigenvalues --    0.27628   0.84831   0.85371   0.89568   0.89568
 Alpha virt. eigenvalues --    0.89579   0.89579   0.94077   0.94545   0.98853
 Alpha virt. eigenvalues --    0.98853   0.98886   0.98886   1.09911   1.09914

 Mulliken charges and spin densities:
               1          2
     1  O   -0.202144   1.305649
     2  O   -0.297856   1.194351
     3  O   -0.297856   1.194351
     4  O   -0.202144   1.305649
 Sum of Mulliken charges =  -1.00000   5.00000

 Dipole moment (field-independent basis, Debye):
    X=             -0.0000    Y=              0.0000    Z=              0.0000  Tot=              0.0000
 Quadrupole moment (field-independent basis, Debye-Ang):
   XX=            -22.1635   YY=            -22.1635   ZZ=            -84.3265
   XY=             -0.0000   XZ=              0.0000   YZ=             -0.0000

 SDQ=-299.9910573\CCSD=-299.9787002\CCSD(T)=-300.0309643\RMSD=8.784e-09
 Normal termination of Gaussian 16 at Mon Jan 16 04:42:13 2023.
