 Gaussian 16, Revision A.03,
 Gaussian 16:  ES64L-G16RevA.03 25-Dec-2016

 ---------------------------------------------------------------
 #p ROCCSD(T)/cc-pVTZ Guess=Read SCF=(VeryTight,CDIIS,VShift=10)
 ---------------------------------------------------------------

 --------
 O2_O2_81
 --------
 Symbolic Z-matrix:
 Charge = -1 Multiplicity = 6

                         Standard orientation:
 ---------------------------------------------------------------------
 Center     Atomic      Atomic             Coordinates (Angstroms)
 Number     Number       Type             X           Y           Z
 ---------------------------------------------------------------------
      1          8           0        0.000000    0.000000    1.365998
      2          8           0        0.000000    0.000000    2.718378
      3          8           0        0.000000    0.000000   -2.718378
      4          8           0        0.000000    0.000000   -1.365998
 ---------------------------------------------------------------------

 SCF Done:  E(ROHF) =  -299.008709270     A.U. after   14 cycles
 E2 =    -0.1074867216D+01 EUMP2 =    -0.30008357648653D+03
 CCSD(T)
 CCSD(T)= -0.30005729237D+03

 The electronic state is 6-SGG.
 Alpha  occ. eigenvalues --  -20.49797 -20.49795 -20.45093 -20.45093  -1.34650
 Alpha  occ. eigenvalues --   -1.34487  -0.98855  -0.97812  -0.50992  -0.50992
 Alpha  occ. eigenvalues --   -0.50870  -0.50654  -0.50654  -0.47435  -0.30802
 Alpha  occ. eigenvalues --   -0.30802  -0.30332  -0.30332   0.16525
 Alpha virt. eigenvalues --    0.37747   0.87107   0.88985   0.88985   0.89095
 Alpha virt. eigenvalues --    0.92166   0.93282   0.93282   0.98016   0.98016
 Alpha virt. eigenvalues --    1.07537   1.07537   1.11795   1.12346   1.41869

 Mulliken charges and spin densities:
               1          2
     1  O   -0.148314   1.361439
     2  O   -0.351686   1.138561
     3  O   -0.351686   1.138561
     4  O   -0.148314   1.361439
 Sum of Mulliken charges =  -1.00000   5.00000

 Dipole moment (field-independent basis, Debye):
    X=             -0.0000    Y=              0.0000    Z=              0.0000  Tot=              0.0000
 Quadrupole moment (field-independent basis, Debye-Ang):
   XX=            -22.1963   YY=            -22.1963   ZZ=            -52.0341
   XY=             -0.0000   XZ=              0.0000   YZ=             -0.0000

 \MP4SDQ=-300.0188554\CCSD=-300.0048018\CCSD(T)=-300.0572924\RMSD=2.838
 Normal termination of Gaussian 16 at Sun Jan 15 02:38:54 2023.
