 Gaussian 16, Revision A.03,
 Gaussian 16:  ES64L-G16RevA.03 25-Dec-2016

 ---------------------------------------------------------------
 #p ROCCSD(T)/cc-pVTZ Guess=Read SCF=(VeryTight,CDIIS,VShift=10)
 ---------------------------------------------------------------

 ---------
 O2_O2_185
 ---------
 Symbolic Z-matrix:
 Charge = -1 Multiplicity = 6

                         Standard orientation:
 ---------------------------------------------------------------------
 Center     Atomic      Atomic             Coordinates (Angstroms)
 Number     Number       Type             X           Y           Z
 ---------------------------------------------------------------------
      1          8           0        0.000000    0.000000    2.102244
      2          8           0        0.000000    0.000000    3.454625
      3          8           0        0.000000    0.000000   -3.454625
      4          8           0        0.000000    0.000000   -2.102244
 ---------------------------------------------------------------------

 SCF Done:  E(ROHF) =  -298.989589634     A.U. after   13 cycles
 E2 =    -0.1076414153D+01 EUMP2 =    -0.30006600378673D+03
 CCSD(T)
 CCSD(T)= -0.30003726653D+03

 The electronic state is 6-SGG.
 Alpha  occ. eigenvalues --  -20.50594 -20.50593 -20.47771 -20.47771  -1.36282
 Alpha  occ. eigenvalues --   -1.36278  -1.00300  -1.00098  -0.52504  -0.52504
 Alpha  occ. eigenvalues --   -0.52495  -0.52495  -0.51587  -0.51086  -0.32499
 Alpha  occ. eigenvalues --   -0.32499  -0.32482  -0.32482   0.18775
 Alpha virt. eigenvalues --    0.30262   0.82195   0.88541   0.90078   0.90078
 Alpha virt. eigenvalues --    0.90312   0.90312   0.93273   0.98850   0.99289
 Alpha virt. eigenvalues --    0.99289   0.99862   0.99862   1.10514   1.10534

 Mulliken charges and spin densities:
               1          2
     1  O   -0.185980   1.327878
     2  O   -0.314020   1.172122
     3  O   -0.314020   1.172122
     4  O   -0.185980   1.327878
 Sum of Mulliken charges =  -1.00000   5.00000

 Dipole moment (field-independent basis, Debye):
    X=             -0.0000    Y=              0.0000    Z=              0.0000  Tot=              0.0000
 Quadrupole moment (field-independent basis, Debye-Ang):
   XX=            -22.1785   YY=            -22.1785   ZZ=            -68.9681
   XY=             -0.0000   XZ=              0.0000   YZ=             -0.0000

 38\MP4SDQ=-299.9979688\CCSD=-299.9851094\CCSD(T)=-300.0372665\RMSD=2.8
 Normal termination of Gaussian 16 at Sun Jan 15 07:14:12 2023.
