 Gaussian 16, Revision A.03,
 Gaussian 16:  ES64L-G16RevA.03 25-Dec-2016

 ---------------------------------------------------------------
 #p ROCCSD(T)/cc-pVTZ Guess=Read SCF=(VeryTight,CDIIS,VShift=10)
 ---------------------------------------------------------------

 ---------
 O2_O2_270
 ---------
 Symbolic Z-matrix:
 Charge = -1 Multiplicity = 6

                         Standard orientation:
 ---------------------------------------------------------------------
 Center     Atomic      Atomic             Coordinates (Angstroms)
 Number     Number       Type             X           Y           Z
 ---------------------------------------------------------------------
      1          8           0        0.000000    0.000000    2.703984
      2          8           0        0.000000    0.000000    4.056364
      3          8           0        0.000000    0.000000   -4.056364
      4          8           0        0.000000    0.000000   -2.703984
 ---------------------------------------------------------------------

 SCF Done:  E(ROHF) =  -298.982656731     A.U. after   11 cycles
 E2 =    -0.1078515466D+01 EUMP2 =    -0.30006117219738D+03
 CCSD(T)
 CCSD(T)= -0.30003076812D+03

 The electronic state is 6-SGG.
 Alpha  occ. eigenvalues --  -20.50599 -20.50598 -20.48738 -20.48738  -1.36905
 Alpha  occ. eigenvalues --   -1.36905  -1.01004  -1.00824  -0.53055  -0.53055
 Alpha  occ. eigenvalues --   -0.53054  -0.53054  -0.52349  -0.52148  -0.33163
 Alpha  occ. eigenvalues --   -0.33163  -0.33162  -0.33162   0.19306
 Alpha virt. eigenvalues --    0.27415   0.84824   0.85179   0.89490   0.89490
 Alpha virt. eigenvalues --    0.89497   0.89497   0.94036   0.94394   0.98772
 Alpha virt. eigenvalues --    0.98772   0.98796   0.98796   1.09832   1.09834

 Mulliken charges and spin densities:
               1          2
     1  O   -0.203988   1.303509
     2  O   -0.296012   1.196491
     3  O   -0.296012   1.196491
     4  O   -0.203988   1.303509
 Sum of Mulliken charges =  -1.00000   5.00000

 Dipole moment (field-independent basis, Debye):
    X=             -0.0000    Y=              0.0000    Z=             -0.0000  Tot=              0.0000
 Quadrupole moment (field-independent basis, Debye-Ang):
   XX=            -22.1628   YY=            -22.1628   ZZ=            -86.5350
   XY=             -0.0000   XZ=              0.0000   YZ=             -0.0000

 P4SDQ=-299.9908371\CCSD=-299.9785008\CCSD(T)=-300.0307681\RMSD=8.428e-
 Normal termination of Gaussian 16 at Mon Jan 16 04:54:06 2023.
