 Gaussian 16, Revision A.03,
 Gaussian 16:  ES64L-G16RevA.03 25-Dec-2016

 ---------------------------------------------------------------
 #p ROCCSD(T)/cc-pVTZ Guess=Read SCF=(VeryTight,CDIIS,VShift=10)
 ---------------------------------------------------------------

 --------
 O2_O2_85
 --------
 Symbolic Z-matrix:
 Charge = -1 Multiplicity = 6

                         Standard orientation:
 ---------------------------------------------------------------------
 Center     Atomic      Atomic             Coordinates (Angstroms)
 Number     Number       Type             X           Y           Z
 ---------------------------------------------------------------------
      1          8           0        0.000000    0.000000    1.394315
      2          8           0        0.000000    0.000000    2.746695
      3          8           0        0.000000    0.000000   -2.746695
      4          8           0        0.000000    0.000000   -1.394315
 ---------------------------------------------------------------------

 SCF Done:  E(ROHF) =  -299.008782164     A.U. after   14 cycles
 E2 =    -0.1074551441D+01 EUMP2 =    -0.30008333360545D+03
 CCSD(T)
 CCSD(T)= -0.30005714338D+03

 The electronic state is 6-SGG.
 Alpha  occ. eigenvalues --  -20.50011 -20.50009 -20.45239 -20.45239  -1.34777
 Alpha  occ. eigenvalues --   -1.34638  -0.98919  -0.97988  -0.51130  -0.51130
 Alpha  occ. eigenvalues --   -0.50834  -0.50834  -0.50831  -0.47680  -0.30913
 Alpha  occ. eigenvalues --   -0.30913  -0.30499  -0.30499   0.16599
 Alpha virt. eigenvalues --    0.37447   0.85650   0.89070   0.89070   0.89215
 Alpha virt. eigenvalues --    0.92205   0.93124   0.93124   0.98050   0.98050
 Alpha virt. eigenvalues --    1.06956   1.06956   1.11719   1.12229   1.39702

 Mulliken charges and spin densities:
               1          2
     1  O   -0.149082   1.365457
     2  O   -0.350918   1.134543
     3  O   -0.350918   1.134543
     4  O   -0.149082   1.365457
 Sum of Mulliken charges =  -1.00000   5.00000

 Dipole moment (field-independent basis, Debye):
    X=             -0.0000    Y=              0.0000    Z=             -0.0000  Tot=              0.0000
 Quadrupole moment (field-independent basis, Debye-Ang):
   XX=            -22.1964   YY=            -22.1964   ZZ=            -52.5486
   XY=             -0.0000   XZ=              0.0000   YZ=             -0.0000

 P4SDQ=-300.0187745\CCSD=-300.0047053\CCSD(T)=-300.0571434\RMSD=2.902e-
 Normal termination of Gaussian 16 at Sun Jan 15 02:48:44 2023.
