 Gaussian 16, Revision A.03,
 Gaussian 16:  ES64L-G16RevA.03 25-Dec-2016

 ---------------------------------------------------------------
 #p ROCCSD(T)/cc-pVTZ Guess=Read SCF=(VeryTight,CDIIS,VShift=10)
 ---------------------------------------------------------------

 ---------
 O2_O2_162
 ---------
 Symbolic Z-matrix:
 Charge = -1 Multiplicity = 6

                         Standard orientation:
 ---------------------------------------------------------------------
 Center     Atomic      Atomic             Coordinates (Angstroms)
 Number     Number       Type             X           Y           Z
 ---------------------------------------------------------------------
      1          8           0        0.000000    0.000000    1.939421
      2          8           0        0.000000    0.000000    3.291801
      3          8           0        0.000000    0.000000   -3.291801
      4          8           0        0.000000    0.000000   -1.939421
 ---------------------------------------------------------------------

 SCF Done:  E(ROHF) =  -298.994963490     A.U. after   13 cycles
 E2 =    -0.1075409548D+01 EUMP2 =    -0.30007037303773D+03
 CCSD(T)
 CCSD(T)= -0.30004233229D+03

 The electronic state is 6-SGG.
 Alpha  occ. eigenvalues --  -20.50838 -20.50837 -20.47494 -20.47494  -1.36154
 Alpha  occ. eigenvalues --   -1.36146  -1.00121  -0.99891  -0.52427  -0.52427
 Alpha  occ. eigenvalues --   -0.52406  -0.52406  -0.51349  -0.50631  -0.32354
 Alpha  occ. eigenvalues --   -0.32354  -0.32317  -0.32317   0.18352
 Alpha virt. eigenvalues --    0.31696   0.79929   0.89470   0.90110   0.90110
 Alpha virt. eigenvalues --    0.90649   0.90649   0.92721   0.99200   0.99200
 Alpha virt. eigenvalues --    1.00485   1.00485   1.03733   1.10680   1.10738

 Mulliken charges and spin densities:
               1          2
     1  O   -0.179207   1.341105
     2  O   -0.320793   1.158895
     3  O   -0.320793   1.158895
     4  O   -0.179207   1.341105
 Sum of Mulliken charges =  -1.00000   5.00000

 Dipole moment (field-independent basis, Debye):
    X=             -0.0000    Y=              0.0000    Z=              0.0000  Tot=              0.0000
 Quadrupole moment (field-independent basis, Debye-Ang):
   XX=            -22.1878   YY=            -22.1878   ZZ=            -64.5939
   XY=             -0.0000   XZ=              0.0000   YZ=             -0.0000

 \MP4SDQ=-300.0034785\CCSD=-299.9902368\CCSD(T)=-300.0423323\RMSD=6.744
 Normal termination of Gaussian 16 at Sun Jan 15 06:13:01 2023.
