 Gaussian 16, Revision A.03,
 Gaussian 16:  ES64L-G16RevA.03 25-Dec-2016

 ---------------------------------------------------------------
 #p ROCCSD(T)/cc-pVTZ Guess=Read SCF=(VeryTight,CDIIS,VShift=10)
 ---------------------------------------------------------------

 --------
 O2_O2_11
 --------
 Symbolic Z-matrix:
 Charge = -1 Multiplicity = 6

                         Standard orientation:
 ---------------------------------------------------------------------
 Center     Atomic      Atomic             Coordinates (Angstroms)
 Number     Number       Type             X           Y           Z
 ---------------------------------------------------------------------
      1          8           0        0.000000    0.000000    0.870447
      2          8           0        0.000000    0.000000    2.222828
      3          8           0        0.000000    0.000000   -2.222828
      4          8           0        0.000000    0.000000   -0.870447
 ---------------------------------------------------------------------

 SCF Done:  E(ROHF) =  -298.949761538     A.U. after   14 cycles
 E2 =    -0.1073293896D+01 EUMP2 =    -0.30002305543405D+03
 CCSD(T)
 CCSD(T)= -0.30000583185D+03

 The electronic state is 6-SGG.
 Alpha  occ. eigenvalues --  -20.43596 -20.43595 -20.41029 -20.41019  -1.32554
 Alpha  occ. eigenvalues --   -1.30315  -1.01550  -0.91305  -0.54948  -0.48617
 Alpha  occ. eigenvalues --   -0.48617  -0.46242  -0.46242  -0.37325  -0.29850
 Alpha  occ. eigenvalues --   -0.29850  -0.24055  -0.24055   0.14036
 Alpha virt. eigenvalues --    0.51108   0.85696   0.88571   0.92969   0.92969
 Alpha virt. eigenvalues --    0.95029   0.95029   1.00245   1.00245   1.12615
 Alpha virt. eigenvalues --    1.12669   1.19089   1.19089   1.26083   1.65775

 Mulliken charges and spin densities:
               1          2
     1  O   -0.211477   1.089769
     2  O   -0.288523   1.410231
     3  O   -0.288523   1.410231
     4  O   -0.211477   1.089769
 Sum of Mulliken charges =  -1.00000   5.00000

 Dipole moment (field-independent basis, Debye):
    X=             -0.0000    Y=             -0.0000    Z=             -0.0000  Tot=              0.0000
 Quadrupole moment (field-independent basis, Debye-Ang):
   XX=            -22.1037   YY=            -22.1037   ZZ=            -41.6149
   XY=             -0.0000   XZ=              0.0000   YZ=             -0.0000

 4\MP4SDQ=-299.9639267\CCSD=-299.9515918\CCSD(T)=-300.0058318\RMSD=4.20
 Normal termination of Gaussian 16 at Sat Jan 14 23:35:42 2023.
