 Gaussian 16, Revision A.03,
 Gaussian 16:  ES64L-G16RevA.03 25-Dec-2016

 ---------------------------------------------------------------
 #p ROCCSD(T)/cc-pVTZ Guess=Read SCF=(VeryTight,CDIIS,VShift=10)
 ---------------------------------------------------------------

 ---------
 O2_O2_133
 ---------
 Symbolic Z-matrix:
 Charge = -1 Multiplicity = 6

                         Standard orientation:
 ---------------------------------------------------------------------
 Center     Atomic      Atomic             Coordinates (Angstroms)
 Number     Number       Type             X           Y           Z
 ---------------------------------------------------------------------
      1          8           0        0.000000    0.000000    1.734121
      2          8           0        0.000000    0.000000    3.086501
      3          8           0        0.000000    0.000000   -3.086501
      4          8           0        0.000000    0.000000   -1.734121
 ---------------------------------------------------------------------

 SCF Done:  E(ROHF) =  -299.002844322     A.U. after   21 cycles
 E2 =    -0.1074018291D+01 EUMP2 =    -0.30007686261317D+03
 CCSD(T)
 CCSD(T)= -0.30004995736D+03

 The electronic state is 6-SGG.
 Alpha  occ. eigenvalues --  -20.51134 -20.51132 -20.46917 -20.46916  -1.35902
 Alpha  occ. eigenvalues --   -1.35879  -0.99803  -0.99485  -0.52255  -0.52255
 Alpha  occ. eigenvalues --   -0.52197  -0.52197  -0.51031  -0.49832  -0.32053
 Alpha  occ. eigenvalues --   -0.32053  -0.31959  -0.31959   0.17646
 Alpha virt. eigenvalues --    0.33908   0.78047   0.89913   0.89961   0.89961
 Alpha virt. eigenvalues --    0.91317   0.91317   0.92322   0.98826   0.98826
 Alpha virt. eigenvalues --    1.01912   1.01912   1.10909   1.11096   1.14255

 Mulliken charges and spin densities:
               1          2
     1  O   -0.167362   1.363883
     2  O   -0.332638   1.136117
     3  O   -0.332638   1.136117
     4  O   -0.167362   1.363883
 Sum of Mulliken charges =  -1.00000   5.00000

 Dipole moment (field-independent basis, Debye):
    X=             -0.0000    Y=              0.0000    Z=              0.0000  Tot=              0.0000
 Quadrupole moment (field-independent basis, Debye-Ang):
   XX=            -22.1972   YY=            -22.1972   ZZ=            -59.4696
   XY=             -0.0000   XZ=              0.0000   YZ=             -0.0000

 26\MP4SDQ=-300.0116686\CCSD=-299.9978777\CCSD(T)=-300.0499574\RMSD=4.7
 Normal termination of Gaussian 16 at Sun Jan 15 04:53:45 2023.
