 Gaussian 16, Revision A.03,
 Gaussian 16:  ES64L-G16RevA.03 25-Dec-2016

 ---------------------------------------------------------------
 #p ROCCSD(T)/cc-pVTZ Guess=Read SCF=(VeryTight,CDIIS,VShift=10)
 ---------------------------------------------------------------

 --------
 O2_O2_66
 --------
 Symbolic Z-matrix:
 Charge = -1 Multiplicity = 6

                         Standard orientation:
 ---------------------------------------------------------------------
 Center     Atomic      Atomic             Coordinates (Angstroms)
 Number     Number       Type             X           Y           Z
 ---------------------------------------------------------------------
      1          8           0        0.000000    0.000000    1.259809
      2          8           0        0.000000    0.000000    2.612189
      3          8           0        0.000000    0.000000   -2.612189
      4          8           0        0.000000    0.000000   -1.259809
 ---------------------------------------------------------------------

 SCF Done:  E(ROHF) =  -299.007484063     A.U. after   14 cycles
 E2 =    -0.1076431752D+01 EUMP2 =    -0.30008391581482D+03
 CCSD(T)
 CCSD(T)= -0.30005708262D+03

 The electronic state is 6-SGG.
 Alpha  occ. eigenvalues --  -20.48839 -20.48836 -20.44586 -20.44585  -1.34160
 Alpha  occ. eigenvalues --   -1.33866  -0.98700  -0.97064  -0.51150  -0.50452
 Alpha  occ. eigenvalues --   -0.50452  -0.49901  -0.49901  -0.46361  -0.30414
 Alpha  occ. eigenvalues --   -0.30414  -0.29646  -0.29646   0.16234
 Alpha virt. eigenvalues --    0.39011   0.88607   0.88806   0.88806   0.91790
 Alpha virt. eigenvalues --    0.93839   0.93839   0.93870   0.97964   0.97964
 Alpha virt. eigenvalues --    1.09855   1.09855   1.12069   1.12799   1.49383

 Mulliken charges and spin densities:
               1          2
     1  O   -0.147168   1.339858
     2  O   -0.352832   1.160142
     3  O   -0.352832   1.160142
     4  O   -0.147168   1.339858
 Sum of Mulliken charges =  -1.00000   5.00000

 Dipole moment (field-independent basis, Debye):
    X=             -0.0000    Y=              0.0000    Z=             -0.0000  Tot=              0.0000
 Quadrupole moment (field-independent basis, Debye-Ang):
   XX=            -22.1969   YY=            -22.1969   ZZ=            -50.1115
   XY=             -0.0000   XZ=              0.0000   YZ=             -0.0000

 8\MP4SDQ=-300.0183449\CCSD=-300.0043633\CCSD(T)=-300.0570826\RMSD=2.28
 Normal termination of Gaussian 16 at Sun Jan 15 01:57:54 2023.
