 Gaussian 16, Revision A.03,
 Gaussian 16:  ES64L-G16RevA.03 25-Dec-2016

 ---------------------------------------------------------------
 #p ROCCSD(T)/cc-pVTZ Guess=Read SCF=(VeryTight,CDIIS,VShift=10)
 ---------------------------------------------------------------

 ---------
 O2_O2_183
 ---------
 Symbolic Z-matrix:
 Charge = -1 Multiplicity = 6

                         Standard orientation:
 ---------------------------------------------------------------------
 Center     Atomic      Atomic             Coordinates (Angstroms)
 Number     Number       Type             X           Y           Z
 ---------------------------------------------------------------------
      1          8           0        0.000000    0.000000    2.088086
      2          8           0        0.000000    0.000000    3.440466
      3          8           0        0.000000    0.000000   -3.440466
      4          8           0        0.000000    0.000000   -2.088086
 ---------------------------------------------------------------------

 SCF Done:  E(ROHF) =  -298.989986422     A.U. after   14 cycles
 E2 =    -0.1076335953D+01 EUMP2 =    -0.30006632237481D+03
 CCSD(T)
 CCSD(T)= -0.30003763864D+03

 The electronic state is 6-SGG.
 Alpha  occ. eigenvalues --  -20.50610 -20.50609 -20.47750 -20.47749  -1.36271
 Alpha  occ. eigenvalues --   -1.36267  -1.00285  -1.00081  -0.52496  -0.52496
 Alpha  occ. eigenvalues --   -0.52486  -0.52486  -0.51567  -0.51051  -0.32486
 Alpha  occ. eigenvalues --   -0.32486  -0.32468  -0.32468   0.18744
 Alpha virt. eigenvalues --    0.30372   0.82016   0.88641   0.90085   0.90085
 Alpha virt. eigenvalues --    0.90337   0.90337   0.93223   0.99164   0.99289
 Alpha virt. eigenvalues --    0.99289   0.99905   0.99905   1.10529   1.10550

 Mulliken charges and spin densities:
               1          2
     1  O   -0.185460   1.328817
     2  O   -0.314540   1.171183
     3  O   -0.314540   1.171183
     4  O   -0.185460   1.328817
 Sum of Mulliken charges =  -1.00000   5.00000

 Dipole moment (field-independent basis, Debye):
    X=             -0.0000    Y=              0.0000    Z=              0.0000  Tot=              0.0000
 Quadrupole moment (field-independent basis, Debye-Ang):
   XX=            -22.1793   YY=            -22.1793   ZZ=            -68.5813
   XY=             -0.0000   XZ=              0.0000   YZ=             -0.0000

 24\MP4SDQ=-299.9983746\CCSD=-299.985487\CCSD(T)=-300.0376386\RMSD=1.87
 Normal termination of Gaussian 16 at Sun Jan 15 07:09:13 2023.
