 Gaussian 16, Revision A.03,
 Gaussian 16:  ES64L-G16RevA.03 25-Dec-2016

 ---------------------------------------------------------------
 #p ROCCSD(T)/cc-pVTZ Guess=Read SCF=(VeryTight,CDIIS,VShift=10)
 ---------------------------------------------------------------

 ---------
 O2_O2_292
 ---------
 Symbolic Z-matrix:
 Charge = -1 Multiplicity = 6

                         Standard orientation:
 ---------------------------------------------------------------------
 Center     Atomic      Atomic             Coordinates (Angstroms)
 Number     Number       Type             X           Y           Z
 ---------------------------------------------------------------------
      1          8           0        0.000000    0.000000    2.859729
      2          8           0        0.000000    0.000000    4.212109
      3          8           0        0.000000    0.000000   -4.212109
      4          8           0        0.000000    0.000000   -2.859729
 ---------------------------------------------------------------------

 SCF Done:  E(ROHF) =  -298.982394481     A.U. after   15 cycles
 E2 =    -0.1078829998D+01 EUMP2 =    -0.30006122447970D+03
 CCSD(T)
 CCSD(T)= -0.30003051094D+03

 The electronic state is 6-SGG.
 Alpha  occ. eigenvalues --  -20.50688 -20.50688 -20.48984 -20.48983  -1.37073
 Alpha  occ. eigenvalues --   -1.37072  -1.01180  -1.01001  -0.53216  -0.53216
 Alpha  occ. eigenvalues --   -0.53216  -0.53216  -0.52517  -0.52347  -0.33341
 Alpha  occ. eigenvalues --   -0.33341  -0.33340  -0.33340   0.19330
 Alpha virt. eigenvalues --    0.26999   0.84728   0.84866   0.89323   0.89323
 Alpha virt. eigenvalues --    0.89327   0.89327   0.93905   0.94130   0.98600
 Alpha virt. eigenvalues --    0.98600   0.98614   0.98614   1.09665   1.09666

 Mulliken charges and spin densities:
               1          2
     1  O   -0.207772   1.299150
     2  O   -0.292228   1.200850
     3  O   -0.292228   1.200850
     4  O   -0.207772   1.299150
 Sum of Mulliken charges =  -1.00000   5.00000

 Dipole moment (field-independent basis, Debye):
    X=             -0.0000    Y=              0.0000    Z=             -0.0000  Tot=              0.0000
 Quadrupole moment (field-independent basis, Debye-Ang):
   XX=            -22.1618   YY=            -22.1618   ZZ=            -91.5567
   XY=             -0.0000   XZ=              0.0000   YZ=             -0.0000

 P4SDQ=-299.9905428\CCSD=-299.9782397\CCSD(T)=-300.0305109\RMSD=3.329e-
 Normal termination of Gaussian 16 at Mon Jan 16 05:20:51 2023.
