 Gaussian 16, Revision A.03,
 Gaussian 16:  ES64L-G16RevA.03 25-Dec-2016

 ---------------------------------------------------------------
 #p ROCCSD(T)/cc-pVTZ Guess=Read SCF=(VeryTight,CDIIS,VShift=10)
 ---------------------------------------------------------------

 ---------
 O2_O2_103
 ---------
 Symbolic Z-matrix:
 Charge = -1 Multiplicity = 6

                         Standard orientation:
 ---------------------------------------------------------------------
 Center     Atomic      Atomic             Coordinates (Angstroms)
 Number     Number       Type             X           Y           Z
 ---------------------------------------------------------------------
      1          8           0        0.000000    0.000000    1.521743
      2          8           0        0.000000    0.000000    2.874123
      3          8           0        0.000000    0.000000   -2.874123
      4          8           0        0.000000    0.000000   -1.521743
 ---------------------------------------------------------------------

 SCF Done:  E(ROHF) =  -299.008046324     A.U. after   14 cycles
 E2 =    -0.1073661304D+01 EUMP2 =    -0.30008170762768D+03
 CCSD(T)
 CCSD(T)= -0.30005562993D+03

 The electronic state is 6-SGG.
 Alpha  occ. eigenvalues --  -20.50753 -20.50751 -20.45918 -20.45917  -1.35304
 Alpha  occ. eigenvalues --   -1.35235  -0.99261  -0.98683  -0.51688  -0.51688
 Alpha  occ. eigenvalues --   -0.51526  -0.51526  -0.50794  -0.48635  -0.31409
 Alpha  occ. eigenvalues --   -0.31409  -0.31174  -0.31174   0.16948
 Alpha virt. eigenvalues --    0.36164   0.80738   0.89485   0.89485   0.89663
 Alpha virt. eigenvalues --    0.92274   0.92392   0.92392   0.98291   0.98291
 Alpha virt. eigenvalues --    1.04625   1.04625   1.11378   1.11731   1.29596

 Mulliken charges and spin densities:
               1          2
     1  O   -0.154351   1.375078
     2  O   -0.345649   1.124922
     3  O   -0.345649   1.124922
     4  O   -0.154351   1.375078
 Sum of Mulliken charges =  -1.00000   5.00000

 Dipole moment (field-independent basis, Debye):
    X=             -0.0000    Y=             -0.0000    Z=              0.0000  Tot=              0.0000
 Quadrupole moment (field-independent basis, Debye-Ang):
   XX=            -22.1976   YY=            -22.1976   ZZ=            -54.9410
   XY=             -0.0000   XZ=              0.0000   YZ=             -0.0000

 76\MP4SDQ=-300.017472\CCSD=-300.0033872\CCSD(T)=-300.0556299\RMSD=2.61
 Normal termination of Gaussian 16 at Sun Jan 15 03:36:34 2023.
