 Gaussian 16, Revision A.03,
 Gaussian 16:  ES64L-G16RevA.03 25-Dec-2016

 ---------------------------------------------------------------
 #p ROCCSD(T)/cc-pVTZ Guess=Read SCF=(VeryTight,CDIIS,VShift=10)
 ---------------------------------------------------------------

 ---------
 O2_O2_202
 ---------
 Symbolic Z-matrix:
 Charge = -1 Multiplicity = 6

                         Standard orientation:
 ---------------------------------------------------------------------
 Center     Atomic      Atomic             Coordinates (Angstroms)
 Number     Number       Type             X           Y           Z
 ---------------------------------------------------------------------
      1          8           0        0.000000    0.000000    2.222593
      2          8           0        0.000000    0.000000    3.574973
      3          8           0        0.000000    0.000000   -3.574973
      4          8           0        0.000000    0.000000   -2.222593
 ---------------------------------------------------------------------

 SCF Done:  E(ROHF) =  -298.986792556     A.U. after   12 cycles
 E2 =    -0.1077009895D+01 EUMP2 =    -0.30006380245082D+03
 CCSD(T)
 CCSD(T)= -0.30003464965D+03

 The electronic state is 6-SGG.
 Alpha  occ. eigenvalues --  -20.50499 -20.50498 -20.47954 -20.47954  -1.36387
 Alpha  occ. eigenvalues --   -1.36385  -1.00432  -1.00240  -0.52583  -0.52583
 Alpha  occ. eigenvalues --   -0.52578  -0.52578  -0.51753  -0.51356  -0.32611
 Alpha  occ. eigenvalues --   -0.32611  -0.32602  -0.32602   0.18987
 Alpha virt. eigenvalues --    0.29432   0.83460   0.87623   0.89996   0.89996
 Alpha virt. eigenvalues --    0.90116   0.90116   0.93666   0.96851   0.99255
 Alpha virt. eigenvalues --    0.99255   0.99554   0.99554   1.10387   1.10391

 Mulliken charges and spin densities:
               1          2
     1  O   -0.190094   1.321095
     2  O   -0.309906   1.178905
     3  O   -0.309906   1.178905
     4  O   -0.190094   1.321095
 Sum of Mulliken charges =  -1.00000   5.00000

 Dipole moment (field-independent basis, Debye):
    X=             -0.0000    Y=              0.0000    Z=             -0.0000  Tot=              0.0000
 Quadrupole moment (field-independent basis, Debye-Ang):
   XX=            -22.1729   YY=            -22.1729   ZZ=            -72.2972
   XY=             -0.0000   XZ=              0.0000   YZ=             -0.0000

 25\MP4SDQ=-299.99511\CCSD=-299.9824506\CCSD(T)=-300.0346497\RMSD=9.410
 Normal termination of Gaussian 16 at Sun Jan 15 07:57:31 2023.
