 Gaussian 16, Revision A.03,
 Gaussian 16:  ES64L-G16RevA.03 25-Dec-2016

 ---------------------------------------------------------------
 #p ROCCSD(T)/cc-pVTZ Guess=Read SCF=(VeryTight,CDIIS,VShift=10)
 ---------------------------------------------------------------

 --------
 O2_O2_21
 --------
 Symbolic Z-matrix:
 Charge = -1 Multiplicity = 6

                         Standard orientation:
 ---------------------------------------------------------------------
 Center     Atomic      Atomic             Coordinates (Angstroms)
 Number     Number       Type             X           Y           Z
 ---------------------------------------------------------------------
      1          8           0        0.000000    0.000000    0.941240
      2          8           0        0.000000    0.000000    2.293621
      3          8           0        0.000000    0.000000   -2.293621
      4          8           0        0.000000    0.000000   -0.941240
 ---------------------------------------------------------------------

 SCF Done:  E(ROHF) =  -298.974419648     A.U. after   16 cycles
 E2 =    -0.1079370114D+01 EUMP2 =    -0.30005378976245D+03
 CCSD(T)
 CCSD(T)= -0.30002957865D+03

 The electronic state is 6-SGG.
 Alpha  occ. eigenvalues --  -20.43727 -20.43727 -20.43242 -20.43235  -1.32736
 Alpha  occ. eigenvalues --   -1.31150  -1.00247  -0.92988  -0.53854  -0.48820
 Alpha  occ. eigenvalues --   -0.48820  -0.46883  -0.46883  -0.39998  -0.29791
 Alpha  occ. eigenvalues --   -0.29791  -0.25892  -0.25892   0.14771
 Alpha virt. eigenvalues --    0.47050   0.86363   0.89372   0.91821   0.91821
 Alpha virt. eigenvalues --    0.94930   0.94930   0.99099   0.99099   1.12562
 Alpha virt. eigenvalues --    1.12642   1.17358   1.17358   1.21694   1.65994

 Mulliken charges and spin densities:
               1          2
     1  O   -0.186367   1.166741
     2  O   -0.313633   1.333259
     3  O   -0.313633   1.333259
     4  O   -0.186367   1.166741
 Sum of Mulliken charges =  -1.00000   5.00000

 Dipole moment (field-independent basis, Debye):
    X=             -0.0000    Y=             -0.0000    Z=             -0.0000  Tot=              0.0000
 Quadrupole moment (field-independent basis, Debye-Ang):
   XX=            -22.1497   YY=            -22.1497   ZZ=            -43.3998
   XY=             -0.0000   XZ=              0.0000   YZ=             -0.0000

 8\MP4SDQ=-299.9889525\CCSD=-299.9756795\CCSD(T)=-300.0295786\RMSD=1.55
 Normal termination of Gaussian 16 at Sun Jan 15 00:01:53 2023.
