 Gaussian 16, Revision A.03,
 Gaussian 16:  ES64L-G16RevA.03 25-Dec-2016

 ---------------------------------------------------------------
 #p ROCCSD(T)/cc-pVTZ Guess=Read SCF=(VeryTight,CDIIS,VShift=10)
 ---------------------------------------------------------------

 ---------
 O2_O2_189
 ---------
 Symbolic Z-matrix:
 Charge = -1 Multiplicity = 6

                         Standard orientation:
 ---------------------------------------------------------------------
 Center     Atomic      Atomic             Coordinates (Angstroms)
 Number     Number       Type             X           Y           Z
 ---------------------------------------------------------------------
      1          8           0        0.000000    0.000000    2.130562
      2          8           0        0.000000    0.000000    3.482942
      3          8           0        0.000000    0.000000   -3.482942
      4          8           0        0.000000    0.000000   -2.130562
 ---------------------------------------------------------------------

 SCF Done:  E(ROHF) =  -298.988839554     A.U. after   12 cycles
 E2 =    -0.1076565230D+01 EUMP2 =    -0.30006540478431D+03
 CCSD(T)
 CCSD(T)= -0.30003656375D+03

 The electronic state is 6-SGG.
 Alpha  occ. eigenvalues --  -20.50565 -20.50564 -20.47815 -20.47814  -1.36306
 Alpha  occ. eigenvalues --   -1.36302  -1.00330  -1.00131  -0.52520  -0.52520
 Alpha  occ. eigenvalues --   -0.52512  -0.52512  -0.51626  -0.51153  -0.32524
 Alpha  occ. eigenvalues --   -0.32524  -0.32509  -0.32509   0.18832
 Alpha virt. eigenvalues --    0.30050   0.82536   0.88334   0.90062   0.90062
 Alpha virt. eigenvalues --    0.90263   0.90263   0.93372   0.98276   0.99288
 Alpha virt. eigenvalues --    0.99288   0.99781   0.99781   1.10485   1.10500

 Mulliken charges and spin densities:
               1          2
     1  O   -0.186994   1.326102
     2  O   -0.313006   1.173898
     3  O   -0.313006   1.173898
     4  O   -0.186994   1.326102
 Sum of Mulliken charges =  -1.00000   5.00000

 Dipole moment (field-independent basis, Debye):
    X=             -0.0000    Y=              0.0000    Z=             -0.0000  Tot=              0.0000
 Quadrupole moment (field-independent basis, Debye-Ang):
   XX=            -22.1771   YY=            -22.1771   ZZ=            -69.7448
   XY=             -0.0000   XZ=              0.0000   YZ=             -0.0000

 48\MP4SDQ=-299.997202\CCSD=-299.984396\CCSD(T)=-300.0365638\RMSD=9.657
 Normal termination of Gaussian 16 at Sun Jan 15 07:24:59 2023.
