 Gaussian 16, Revision A.03,
 Gaussian 16:  ES64L-G16RevA.03 25-Dec-2016

 ---------------------------------------------------------------
 #p ROCCSD(T)/cc-pVTZ Guess=Read SCF=(VeryTight,CDIIS,VShift=10)
 ---------------------------------------------------------------

 --------
 O2_O2_88
 --------
 Symbolic Z-matrix:
 Charge = -1 Multiplicity = 6

                         Standard orientation:
 ---------------------------------------------------------------------
 Center     Atomic      Atomic             Coordinates (Angstroms)
 Number     Number       Type             X           Y           Z
 ---------------------------------------------------------------------
      1          8           0        0.000000    0.000000    1.415553
      2          8           0        0.000000    0.000000    2.767933
      3          8           0        0.000000    0.000000   -2.767933
      4          8           0        0.000000    0.000000   -1.415553
 ---------------------------------------------------------------------

 SCF Done:  E(ROHF) =  -299.008779172     A.U. after   14 cycles
 E2 =    -0.1074342430D+01 EUMP2 =    -0.30008312160226D+03
 CCSD(T)
 CCSD(T)= -0.30005698583D+03

 The electronic state is 6-SGG.
 Alpha  occ. eigenvalues --  -20.50160 -20.50158 -20.45351 -20.45350  -1.34871
 Alpha  occ. eigenvalues --   -1.34747  -0.98971  -0.98115  -0.51231  -0.51231
 Alpha  occ. eigenvalues --   -0.50962  -0.50962  -0.50810  -0.47855  -0.30996
 Alpha  occ. eigenvalues --   -0.30996  -0.30620  -0.30620   0.16656
 Alpha virt. eigenvalues --    0.37228   0.84644   0.89138   0.89138   0.89301
 Alpha virt. eigenvalues --    0.92227   0.93003   0.93003   0.98081   0.98081
 Alpha virt. eigenvalues --    1.06535   1.06535   1.11662   1.12143   1.38044

 Mulliken charges and spin densities:
               1          2
     1  O   -0.149764   1.368018
     2  O   -0.350236   1.131982
     3  O   -0.350236   1.131982
     4  O   -0.149764   1.368018
 Sum of Mulliken charges =  -1.00000   5.00000

 Dipole moment (field-independent basis, Debye):
    X=             -0.0000    Y=              0.0000    Z=              0.0000  Tot=              0.0000
 Quadrupole moment (field-independent basis, Debye-Ang):
   XX=            -22.1965   YY=            -22.1965   ZZ=            -52.9373
   XY=             -0.0000   XZ=              0.0000   YZ=             -0.0000

 6\MP4SDQ=-300.0186638\CCSD=-300.004585\CCSD(T)=-300.0569858\RMSD=3.277
 Normal termination of Gaussian 16 at Sun Jan 15 02:56:30 2023.
