 Gaussian 16, Revision A.03,
 Gaussian 16:  ES64L-G16RevA.03 25-Dec-2016

 ---------------------------------------------------------------
 #p ROCCSD(T)/cc-pVTZ Guess=Read SCF=(VeryTight,CDIIS,VShift=10)
 ---------------------------------------------------------------

 --------
 O2_O2_32
 --------
 Symbolic Z-matrix:
 Charge = -1 Multiplicity = 6

                         Standard orientation:
 ---------------------------------------------------------------------
 Center     Atomic      Atomic             Coordinates (Angstroms)
 Number     Number       Type             X           Y           Z
 ---------------------------------------------------------------------
      1          8           0        0.000000    0.000000    1.019113
      2          8           0        0.000000    0.000000    2.371493
      3          8           0        0.000000    0.000000   -2.371493
      4          8           0        0.000000    0.000000   -1.019113
 ---------------------------------------------------------------------

 SCF Done:  E(ROHF) =  -298.990682505     A.U. after   13 cycles
 E2 =    -0.1080799261D+01 EUMP2 =    -0.30007148176596D+03
 CCSD(T)
 CCSD(T)= -0.30004422501D+03

 The electronic state is 6-SGG.
 Alpha  occ. eigenvalues --  -20.45207 -20.45202 -20.43833 -20.43833  -1.33049
 Alpha  occ. eigenvalues --   -1.31974  -0.99391  -0.94410  -0.52875  -0.49179
 Alpha  occ. eigenvalues --   -0.49179  -0.47684  -0.47684  -0.42252  -0.29840
 Alpha  occ. eigenvalues --   -0.29840  -0.27292  -0.27292   0.15306
 Alpha virt. eigenvalues --    0.43979   0.87085   0.90146   0.90495   0.90495
 Alpha virt. eigenvalues --    0.94764   0.94764   0.98472   0.98472   1.11571
 Alpha virt. eigenvalues --    1.12559   1.15475   1.15475   1.16353   1.62715

 Mulliken charges and spin densities:
               1          2
     1  O   -0.166182   1.232616
     2  O   -0.333818   1.267384
     3  O   -0.333818   1.267384
     4  O   -0.166182   1.232616
 Sum of Mulliken charges =  -1.00000   5.00000

 Dipole moment (field-independent basis, Debye):
    X=             -0.0000    Y=              0.0000    Z=             -0.0000  Tot=              0.0000
 Quadrupole moment (field-independent basis, Debye-Ang):
   XX=            -22.1780   YY=            -22.1780   ZZ=            -45.2809
   XY=             -0.0000   XZ=              0.0000   YZ=             -0.0000

 8\MP4SDQ=-300.0043978\CCSD=-299.9906922\CCSD(T)=-300.044225\RMSD=7.014
 Normal termination of Gaussian 16 at Sun Jan 15 00:31:04 2023.
