 Gaussian 16, Revision A.03,
 Gaussian 16:  ES64L-G16RevA.03 25-Dec-2016

 ---------------------------------------------------------------
 #p ROCCSD(T)/cc-pVTZ Guess=Read SCF=(VeryTight,CDIIS,VShift=10)
 ---------------------------------------------------------------

 ---------
 O2_O2_119
 ---------
 Symbolic Z-matrix:
 Charge = -1 Multiplicity = 6

                         Standard orientation:
 ---------------------------------------------------------------------
 Center     Atomic      Atomic             Coordinates (Angstroms)
 Number     Number       Type             X           Y           Z
 ---------------------------------------------------------------------
      1          8           0        0.000000    0.000000    1.635011
      2          8           0        0.000000    0.000000    2.987391
      3          8           0        0.000000    0.000000   -2.987391
      4          8           0        0.000000    0.000000   -1.635011
 ---------------------------------------------------------------------

 SCF Done:  E(ROHF) =  -299.005878673     A.U. after   12 cycles
 E2 =    -0.1073603660D+01 EUMP2 =    -0.30007948233266D+03
 CCSD(T)
 CCSD(T)= -0.30005308466D+03

 The electronic state is 6-SGG.
 Alpha  occ. eigenvalues --  -20.51085 -20.51084 -20.46492 -20.46492  -1.35674
 Alpha  occ. eigenvalues --   -1.35636  -0.99573  -0.99167  -0.52054  -0.52054
 Alpha  occ. eigenvalues --   -0.51960  -0.51960  -0.50893  -0.49326  -0.31796
 Alpha  occ. eigenvalues --   -0.31796  -0.31652  -0.31652   0.17301
 Alpha virt. eigenvalues --    0.34995   0.78527   0.89785   0.89785   0.89881
 Alpha virt. eigenvalues --    0.91777   0.91777   0.92277   0.98575   0.98575
 Alpha virt. eigenvalues --    1.02996   1.02996   1.11108   1.11355   1.20957

 Mulliken charges and spin densities:
               1          2
     1  O   -0.160928   1.372556
     2  O   -0.339072   1.127444
     3  O   -0.339072   1.127444
     4  O   -0.160928   1.372556
 Sum of Mulliken charges =  -1.00000   5.00000

 Dipole moment (field-independent basis, Debye):
    X=             -0.0000    Y=              0.0000    Z=             -0.0000  Tot=              0.0000
 Quadrupole moment (field-independent basis, Debye-Ang):
   XX=            -22.1985   YY=            -22.1985   ZZ=            -57.2527
   XY=             -0.0000   XZ=              0.0000   YZ=             -0.0000

 23\MP4SDQ=-300.0149372\CCSD=-300.0009554\CCSD(T)=-300.0530847\RMSD=4.7
 Normal termination of Gaussian 16 at Sun Jan 15 04:18:40 2023.
