 Gaussian 16, Revision A.03,
 Gaussian 16:  ES64L-G16RevA.03 25-Dec-2016

 ---------------------------------------------------------------
 #p ROCCSD(T)/cc-pVTZ Guess=Read SCF=(VeryTight,CDIIS,VShift=10)
 ---------------------------------------------------------------

 ---------
 O2_O2_164
 ---------
 Symbolic Z-matrix:
 Charge = -1 Multiplicity = 6

                         Standard orientation:
 ---------------------------------------------------------------------
 Center     Atomic      Atomic             Coordinates (Angstroms)
 Number     Number       Type             X           Y           Z
 ---------------------------------------------------------------------
      1          8           0        0.000000    0.000000    1.953579
      2          8           0        0.000000    0.000000    3.305959
      3          8           0        0.000000    0.000000   -3.305959
      4          8           0        0.000000    0.000000   -1.953579
 ---------------------------------------------------------------------

 SCF Done:  E(ROHF) =  -298.994434317     A.U. after   13 cycles
 E2 =    -0.1075505384D+01 EUMP2 =    -0.30006993970098D+03
 CCSD(T)
 CCSD(T)= -0.30004183050D+03

 The electronic state is 6-SGG.
 Alpha  occ. eigenvalues --  -20.50813 -20.50812 -20.47522 -20.47522  -1.36165
 Alpha  occ. eigenvalues --   -1.36158  -1.00137  -0.99911  -0.52433  -0.52433
 Alpha  occ. eigenvalues --   -0.52414  -0.52414  -0.51371  -0.50676  -0.32368
 Alpha  occ. eigenvalues --   -0.32368  -0.32333  -0.32333   0.18395
 Alpha virt. eigenvalues --    0.31557   0.80130   0.89410   0.90111   0.90111
 Alpha virt. eigenvalues --    0.90615   0.90615   0.92764   0.99215   0.99215
 Alpha virt. eigenvalues --    1.00417   1.00417   1.03191   1.10665   1.10718

 Mulliken charges and spin densities:
               1          2
     1  O   -0.179879   1.339728
     2  O   -0.320121   1.160272
     3  O   -0.320121   1.160272
     4  O   -0.179879   1.339728
 Sum of Mulliken charges =  -1.00000   5.00000

 Dipole moment (field-independent basis, Debye):
    X=             -0.0000    Y=              0.0000    Z=             -0.0000  Tot=              0.0000
 Quadrupole moment (field-independent basis, Debye-Ang):
   XX=            -22.1870   YY=            -22.1870   ZZ=            -64.9666
   XY=             -0.0000   XZ=              0.0000   YZ=             -0.0000

 97\MP4SDQ=-300.0029343\CCSD=-299.9897303\CCSD(T)=-300.0418305\RMSD=9.6
 Normal termination of Gaussian 16 at Sun Jan 15 06:18:14 2023.
