 Gaussian 16, Revision A.03,
 Gaussian 16:  ES64L-G16RevA.03 25-Dec-2016

 ---------------------------------------------------------------
 #p ROCCSD(T)/cc-pVTZ Guess=Read SCF=(VeryTight,CDIIS,VShift=10)
 ---------------------------------------------------------------

 ---------
 O2_O2_199
 ---------
 Symbolic Z-matrix:
 Charge = -1 Multiplicity = 6

                         Standard orientation:
 ---------------------------------------------------------------------
 Center     Atomic      Atomic             Coordinates (Angstroms)
 Number     Number       Type             X           Y           Z
 ---------------------------------------------------------------------
      1          8           0        0.000000    0.000000    2.201354
      2          8           0        0.000000    0.000000    3.553735
      3          8           0        0.000000    0.000000   -3.553735
      4          8           0        0.000000    0.000000   -2.201354
 ---------------------------------------------------------------------

 SCF Done:  E(ROHF) =  -298.987213654     A.U. after   12 cycles
 E2 =    -0.1076913308D+01 EUMP2 =    -0.30006412696229D+03
 CCSD(T)
 CCSD(T)= -0.30003504289D+03

 The electronic state is 6-SGG.
 Alpha  occ. eigenvalues --  -20.50510 -20.50510 -20.47922 -20.47921  -1.36368
 Alpha  occ. eigenvalues --   -1.36365  -1.00408  -1.00215  -0.52567  -0.52567
 Alpha  occ. eigenvalues --   -0.52562  -0.52562  -0.51724  -0.51311  -0.32590
 Alpha  occ. eigenvalues --   -0.32590  -0.32580  -0.32580   0.18955
 Alpha virt. eigenvalues --    0.29565   0.83272   0.87789   0.90013   0.90013
 Alpha virt. eigenvalues --    0.90149   0.90149   0.93604   0.97127   0.99266
 Alpha virt. eigenvalues --    0.99266   0.99602   0.99602   1.10410   1.10416

 Mulliken charges and spin densities:
               1          2
     1  O   -0.189400   1.322161
     2  O   -0.310600   1.177839
     3  O   -0.310600   1.177839
     4  O   -0.189400   1.322161
 Sum of Mulliken charges =  -1.00000   5.00000

 Dipole moment (field-independent basis, Debye):
    X=             -0.0000    Y=              0.0000    Z=             -0.0000  Tot=              0.0000
 Quadrupole moment (field-independent basis, Debye-Ang):
   XX=            -22.1738   YY=            -22.1738   ZZ=            -71.7044
   XY=             -0.0000   XZ=              0.0000   YZ=             -0.0000

 \MP4SDQ=-299.9955404\CCSD=-299.9828505\CCSD(T)=-300.0350429\RMSD=8.391
 Normal termination of Gaussian 16 at Sun Jan 15 07:49:44 2023.
