 Gaussian 16, Revision A.03,
 Gaussian 16:  ES64L-G16RevA.03 25-Dec-2016

 ---------------------------------------------------------------
 #p ROCCSD(T)/cc-pVTZ Guess=Read SCF=(VeryTight,CDIIS,VShift=10)
 ---------------------------------------------------------------

 ---------
 O2_O2_174
 ---------
 Symbolic Z-matrix:
 Charge = -1 Multiplicity = 6

                         Standard orientation:
 ---------------------------------------------------------------------
 Center     Atomic      Atomic             Coordinates (Angstroms)
 Number     Number       Type             X           Y           Z
 ---------------------------------------------------------------------
      1          8           0        0.000000    0.000000    2.024372
      2          8           0        0.000000    0.000000    3.376752
      3          8           0        0.000000    0.000000   -3.376752
      4          8           0        0.000000    0.000000   -2.024372
 ---------------------------------------------------------------------

 SCF Done:  E(ROHF) =  -298.991947915     A.U. after   13 cycles
 E2 =    -0.1075961929D+01 EUMP2 =    -0.30006790984425D+03
 CCSD(T)
 CCSD(T)= -0.30003948215D+03

 The electronic state is 6-SGG.
 Alpha  occ. eigenvalues --  -20.50696 -20.50695 -20.47648 -20.47648  -1.36221
 Alpha  occ. eigenvalues --   -1.36216  -1.00216  -1.00004  -0.52465  -0.52465
 Alpha  occ. eigenvalues --   -0.52451  -0.52451  -0.51475  -0.50884  -0.32431
 Alpha  occ. eigenvalues --   -0.32431  -0.32406  -0.32406   0.18592
 Alpha virt. eigenvalues --    0.30902   0.81149   0.89049   0.90106   0.90106
 Alpha virt. eigenvalues --    0.90459   0.90459   0.92998   0.99269   0.99269
 Alpha virt. eigenvalues --    1.00121   1.00121   1.00827   1.10593   1.10628

 Mulliken charges and spin densities:
               1          2
     1  O   -0.182978   1.333509
     2  O   -0.317022   1.166491
     3  O   -0.317022   1.166491
     4  O   -0.182978   1.333509
 Sum of Mulliken charges =  -1.00000   5.00000

 Dipole moment (field-independent basis, Debye):
    X=             -0.0000    Y=              0.0000    Z=              0.0000  Tot=              0.0000
 Quadrupole moment (field-independent basis, Debye-Ang):
   XX=            -22.1828   YY=            -22.1828   ZZ=            -66.8543
   XY=             -0.0000   XZ=              0.0000   YZ=             -0.0000

 98\MP4SDQ=-300.0003827\CCSD=-299.9873556\CCSD(T)=-300.0394822\RMSD=5.5
 Normal termination of Gaussian 16 at Sun Jan 15 06:43:07 2023.
