 Gaussian 16, Revision A.03,
 Gaussian 16:  ES64L-G16RevA.03 25-Dec-2016

 ---------------------------------------------------------------
 #p ROCCSD(T)/cc-pVTZ Guess=Read SCF=(VeryTight,CDIIS,VShift=10)
 ---------------------------------------------------------------

 ---------
 O2_O2_214
 ---------
 Symbolic Z-matrix:
 Charge = -1 Multiplicity = 6

                         Standard orientation:
 ---------------------------------------------------------------------
 Center     Atomic      Atomic             Coordinates (Angstroms)
 Number     Number       Type             X           Y           Z
 ---------------------------------------------------------------------
      1          8           0        0.000000    0.000000    2.307544
      2          8           0        0.000000    0.000000    3.659924
      3          8           0        0.000000    0.000000   -3.659924
      4          8           0        0.000000    0.000000   -2.307544
 ---------------------------------------------------------------------

 SCF Done:  E(ROHF) =  -298.985386646     A.U. after   10 cycles
 E2 =    -0.1077363518D+01 EUMP2 =    -0.30006275016401D+03
 CCSD(T)
 CCSD(T)= -0.30003333646D+03

 The electronic state is 6-SGG.
 Alpha  occ. eigenvalues --  -20.50474 -20.50473 -20.48086 -20.48086  -1.36470
 Alpha  occ. eigenvalues --   -1.36469  -1.00529  -1.00342  -0.52653  -0.52653
 Alpha  occ. eigenvalues --   -0.52650  -0.52650  -0.51865  -0.51523  -0.32699
 Alpha  occ. eigenvalues --   -0.32699  -0.32693  -0.32693   0.19093
 Alpha virt. eigenvalues --    0.28947   0.84061   0.86985   0.89920   0.89920
 Alpha virt. eigenvalues --    0.89993   0.89993   0.93878   0.95990   0.99195
 Alpha virt. eigenvalues --    0.99195   0.99382   0.99382   1.10291   1.10292

 Mulliken charges and spin densities:
               1          2
     1  O   -0.192780   1.317233
     2  O   -0.307220   1.182767
     3  O   -0.307220   1.182767
     4  O   -0.192780   1.317233
 Sum of Mulliken charges =  -1.00000   5.00000

 Dipole moment (field-independent basis, Debye):
    X=             -0.0000    Y=              0.0000    Z=              0.0000  Tot=              0.0000
 Quadrupole moment (field-independent basis, Debye-Ang):
   XX=            -22.1698   YY=            -22.1698   ZZ=            -74.6928
   XY=             -0.0000   XZ=              0.0000   YZ=             -0.0000

 02\MP4SDQ=-299.9936719\CCSD=-299.9811145\CCSD(T)=-300.0333365\RMSD=3.1
 Normal termination of Gaussian 16 at Sun Jan 15 08:30:54 2023.
