 Gaussian 16, Revision A.03,
 Gaussian 16:  ES64L-G16RevA.03 25-Dec-2016

 ---------------------------------------------------------------
 #p ROCCSD(T)/cc-pVTZ Guess=Read SCF=(VeryTight,CDIIS,VShift=10)
 ---------------------------------------------------------------

 --------
 O2_O2_20
 --------
 Symbolic Z-matrix:
 Charge = -1 Multiplicity = 6

                         Standard orientation:
 ---------------------------------------------------------------------
 Center     Atomic      Atomic             Coordinates (Angstroms)
 Number     Number       Type             X           Y           Z
 ---------------------------------------------------------------------
      1          8           0        0.000000    0.000000    0.934161
      2          8           0        0.000000    0.000000    2.286542
      3          8           0        0.000000    0.000000   -2.286542
      4          8           0        0.000000    0.000000   -0.934161
 ---------------------------------------------------------------------

 SCF Done:  E(ROHF) =  -298.972449447     A.U. after   12 cycles
 E2 =    -0.1079013480D+01 EUMP2 =    -0.30005146292640D+03
 CCSD(T)
 CCSD(T)= -0.30002773841D+03

 The electronic state is 6-SGG.
 Alpha  occ. eigenvalues --  -20.43718 -20.43717 -20.43037 -20.43030  -1.32711
 Alpha  occ. eigenvalues --   -1.31069  -1.00350  -0.92838  -0.53954  -0.48793
 Alpha  occ. eigenvalues --   -0.48793  -0.46814  -0.46814  -0.39759  -0.29791
 Alpha  occ. eigenvalues --   -0.29791  -0.25735  -0.25735   0.14711
 Alpha virt. eigenvalues --    0.47393   0.86294   0.89297   0.91946   0.91946
 Alpha virt. eigenvalues --    0.94942   0.94942   0.99184   0.99184   1.12589
 Alpha virt. eigenvalues --    1.12645   1.17531   1.17531   1.22174   1.66254

 Mulliken charges and spin densities:
               1          2
     1  O   -0.188639   1.159734
     2  O   -0.311361   1.340266
     3  O   -0.311361   1.340266
     4  O   -0.188639   1.159734
 Sum of Mulliken charges =  -1.00000   5.00000

 Dipole moment (field-independent basis, Debye):
    X=             -0.0000    Y=              0.0000    Z=             -0.0000  Tot=              0.0000
 Quadrupole moment (field-independent basis, Debye-Ang):
   XX=            -22.1461   YY=            -22.1461   ZZ=            -43.2216
   XY=             -0.0000   XZ=              0.0000   YZ=             -0.0000

 9\MP4SDQ=-299.9870133\CCSD=-299.9738049\CCSD(T)=-300.0277384\RMSD=9.10
 Normal termination of Gaussian 16 at Sat Jan 14 23:58:30 2023.
