 Gaussian 16, Revision A.03,
 Gaussian 16:  ES64L-G16RevA.03 25-Dec-2016

 ---------------------------------------------------------------
 #p ROCCSD(T)/cc-pVTZ Guess=Read SCF=(VeryTight,CDIIS,VShift=10)
 ---------------------------------------------------------------

 --------
 O2_O2_40
 --------
 Symbolic Z-matrix:
 Charge = -1 Multiplicity = 6

                         Standard orientation:
 ---------------------------------------------------------------------
 Center     Atomic      Atomic             Coordinates (Angstroms)
 Number     Number       Type             X           Y           Z
 ---------------------------------------------------------------------
      1          8           0        0.000000    0.000000    1.075747
      2          8           0        0.000000    0.000000    2.428127
      3          8           0        0.000000    0.000000   -2.428127
      4          8           0        0.000000    0.000000   -1.075747
 ---------------------------------------------------------------------

 SCF Done:  E(ROHF) =  -298.997861168     A.U. after   11 cycles
 E2 =    -0.1080151731D+01 EUMP2 =    -0.30007801289858D+03
 CCSD(T)
 CCSD(T)= -0.30005024101D+03

 The electronic state is 6-SGG.
 Alpha  occ. eigenvalues --  -20.46336 -20.46332 -20.43948 -20.43947  -1.33303
 Alpha  occ. eigenvalues --   -1.32502  -0.99024  -0.95223  -0.52303  -0.49475
 Alpha  occ. eigenvalues --   -0.49475  -0.48267  -0.48267  -0.43536  -0.29924
 Alpha  occ. eigenvalues --   -0.29924  -0.28031  -0.28031   0.15590
 Alpha virt. eigenvalues --    0.42360   0.87536   0.89735   0.89735   0.90655
 Alpha virt. eigenvalues --    0.94598   0.94598   0.98233   0.98233   1.08576
 Alpha virt. eigenvalues --    1.12465   1.14129   1.14129   1.14167   1.59971

 Mulliken charges and spin densities:
               1          2
     1  O   -0.156983   1.268626
     2  O   -0.343017   1.231374
     3  O   -0.343017   1.231374
     4  O   -0.156983   1.268626
 Sum of Mulliken charges =  -1.00000   5.00000

 Dipole moment (field-independent basis, Debye):
    X=             -0.0000    Y=              0.0000    Z=              0.0000  Tot=              0.0000
 Quadrupole moment (field-independent basis, Debye-Ang):
   XX=            -22.1890   YY=            -22.1890   ZZ=            -46.5343
   XY=             -0.0000   XZ=              0.0000   YZ=             -0.0000

 9\MP4SDQ=-300.0107779\CCSD=-299.9969472\CCSD(T)=-300.050241\RMSD=9.361
 Normal termination of Gaussian 16 at Sun Jan 15 00:50:59 2023.
