 Gaussian 16, Revision A.03,
 Gaussian 16:  ES64L-G16RevA.03 25-Dec-2016

 ---------------------------------------------------------------
 #p ROCCSD(T)/cc-pVTZ Guess=Read SCF=(VeryTight,CDIIS,VShift=10)
 ---------------------------------------------------------------

 ---------
 O2_O2_287
 ---------
 Symbolic Z-matrix:
 Charge = -1 Multiplicity = 6

                         Standard orientation:
 ---------------------------------------------------------------------
 Center     Atomic      Atomic             Coordinates (Angstroms)
 Number     Number       Type             X           Y           Z
 ---------------------------------------------------------------------
      1          8           0        0.000000    0.000000    2.824332
      2          8           0        0.000000    0.000000    4.176712
      3          8           0        0.000000    0.000000   -4.176712
      4          8           0        0.000000    0.000000   -2.824332
 ---------------------------------------------------------------------

 SCF Done:  E(ROHF) =  -298.982437773     A.U. after    9 cycles
 E2 =    -0.1078762848D+01 EUMP2 =    -0.30006120062186D+03
 CCSD(T)
 CCSD(T)= -0.30003055409D+03

 The electronic state is 6-SGG.
 Alpha  occ. eigenvalues --  -20.50668 -20.50667 -20.48929 -20.48929  -1.37036
 Alpha  occ. eigenvalues --   -1.37035  -1.01141  -1.00962  -0.53180  -0.53180
 Alpha  occ. eigenvalues --   -0.53180  -0.53179  -0.52480  -0.52304  -0.33301
 Alpha  occ. eigenvalues --   -0.33301  -0.33301  -0.33301   0.19326
 Alpha virt. eigenvalues --    0.27088   0.84756   0.84927   0.89360   0.89360
 Alpha virt. eigenvalues --    0.89364   0.89364   0.93938   0.94184   0.98638
 Alpha virt. eigenvalues --    0.98638   0.98654   0.98654   1.09702   1.09703

 Mulliken charges and spin densities:
               1          2
     1  O   -0.206944   1.300102
     2  O   -0.293056   1.199898
     3  O   -0.293056   1.199898
     4  O   -0.206944   1.300102
 Sum of Mulliken charges =  -1.00000   5.00000

 Dipole moment (field-independent basis, Debye):
    X=             -0.0000    Y=              0.0000    Z=              0.0000  Tot=              0.0000
 Quadrupole moment (field-independent basis, Debye-Ang):
   XX=            -22.1620   YY=            -22.1620   ZZ=            -90.3952
   XY=             -0.0000   XZ=              0.0000   YZ=             -0.0000

 P4SDQ=-299.990593\CCSD=-299.9782835\CCSD(T)=-300.0305541\RMSD=6.166e-0
 Normal termination of Gaussian 16 at Mon Jan 16 05:15:09 2023.
