 Gaussian 16, Revision A.03,
 Gaussian 16:  ES64L-G16RevA.03 25-Dec-2016

 ---------------------------------------------------------------
 #p ROCCSD(T)/cc-pVTZ Guess=Read SCF=(VeryTight,CDIIS,VShift=10)
 ---------------------------------------------------------------

 --------
 O2_O2_98
 --------
 Symbolic Z-matrix:
 Charge = -1 Multiplicity = 6

                         Standard orientation:
 ---------------------------------------------------------------------
 Center     Atomic      Atomic             Coordinates (Angstroms)
 Number     Number       Type             X           Y           Z
 ---------------------------------------------------------------------
      1          8           0        0.000000    0.000000    1.486346
      2          8           0        0.000000    0.000000    2.838726
      3          8           0        0.000000    0.000000   -2.838726
      4          8           0        0.000000    0.000000   -1.486346
 ---------------------------------------------------------------------

 SCF Done:  E(ROHF) =  -299.008425016     A.U. after   14 cycles
 E2 =    -0.1073820087D+01 EUMP2 =    -0.30008224510298D+03
 CCSD(T)
 CCSD(T)= -0.30005618828D+03

 The electronic state is 6-SGG.
 Alpha  occ. eigenvalues --  -20.50584 -20.50583 -20.45729 -20.45728  -1.35167
 Alpha  occ. eigenvalues --   -1.35083  -0.99161  -0.98506  -0.51546  -0.51546
 Alpha  occ. eigenvalues --   -0.51354  -0.51354  -0.50785  -0.48391  -0.31274
 Alpha  occ. eigenvalues --   -0.31274  -0.31000  -0.31000   0.16847
 Alpha virt. eigenvalues --    0.36517   0.81835   0.89372   0.89372   0.89557
 Alpha virt. eigenvalues --    0.92268   0.92596   0.92596   0.98212   0.98212
 Alpha virt. eigenvalues --    1.05223   1.05223   1.11471   1.11864   1.32414

 Mulliken charges and spin densities:
               1          2
     1  O   -0.152622   1.373782
     2  O   -0.347378   1.126218
     3  O   -0.347378   1.126218
     4  O   -0.152622   1.373782
 Sum of Mulliken charges =  -1.00000   5.00000

 Dipole moment (field-independent basis, Debye):
    X=             -0.0000    Y=              0.0000    Z=              0.0000  Tot=              0.0000
 Quadrupole moment (field-independent basis, Debye-Ang):
   XX=            -22.1972   YY=            -22.1972   ZZ=            -54.2592
   XY=             -0.0000   XZ=              0.0000   YZ=             -0.0000

 MP4SDQ=-300.0179903\CCSD=-300.0038981\CCSD(T)=-300.0561883\RMSD=3.643e
 Normal termination of Gaussian 16 at Sun Jan 15 03:24:08 2023.
