 Gaussian 16, Revision A.03,
 Gaussian 16:  ES64L-G16RevA.03 25-Dec-2016

 ---------------------------------------------------------------
 #p ROCCSD(T)/cc-pVTZ Guess=Read SCF=(VeryTight,CDIIS,VShift=10)
 ---------------------------------------------------------------

 --------
 O2_O2_50
 --------
 Symbolic Z-matrix:
 Charge = -1 Multiplicity = 6

                         Standard orientation:
 ---------------------------------------------------------------------
 Center     Atomic      Atomic             Coordinates (Angstroms)
 Number     Number       Type             X           Y           Z
 ---------------------------------------------------------------------
      1          8           0        0.000000    0.000000    1.146540
      2          8           0        0.000000    0.000000    2.498920
      3          8           0        0.000000    0.000000   -2.498920
      4          8           0        0.000000    0.000000   -1.146540
 ---------------------------------------------------------------------

 SCF Done:  E(ROHF) =  -299.003354111     A.U. after   14 cycles
 E2 =    -0.1078708327D+01 EUMP2 =    -0.30008206243839D+03
 CCSD(T)
 CCSD(T)= -0.30005447522D+03

 The electronic state is 6-SGG.
 Alpha  occ. eigenvalues --  -20.47469 -20.47466 -20.44149 -20.44148  -1.33631
 Alpha  occ. eigenvalues --   -1.33082  -0.98774  -0.96046  -0.51741  -0.49853
 Alpha  occ. eigenvalues --   -0.49853  -0.48949  -0.48949  -0.44821  -0.30077
 Alpha  occ. eigenvalues --   -0.30077  -0.28752  -0.28752   0.15873
 Alpha virt. eigenvalues --    0.40810   0.88005   0.89118   0.89118   0.91206
 Alpha virt. eigenvalues --    0.94342   0.94342   0.98063   0.98063   1.02792
 Alpha virt. eigenvalues --    1.12326   1.12467   1.12467   1.13379   1.56215

 Mulliken charges and spin densities:
               1          2
     1  O   -0.150506   1.302726
     2  O   -0.349494   1.197274
     3  O   -0.349494   1.197274
     4  O   -0.150506   1.302726
 Sum of Mulliken charges =  -1.00000   5.00000

 Dipole moment (field-independent basis, Debye):
    X=             -0.0000    Y=             -0.0000    Z=             -0.0000  Tot=              0.0000
 Quadrupole moment (field-independent basis, Debye-Ang):
   XX=            -22.1954   YY=            -22.1954   ZZ=            -47.9791
   XY=             -0.0000   XZ=              0.0000   YZ=             -0.0000

 MP4SDQ=-300.0153406\CCSD=-300.0014367\CCSD(T)=-300.0544752\RMSD=5.627e
 Normal termination of Gaussian 16 at Sun Jan 15 01:17:42 2023.
