 Gaussian 16, Revision A.03,
 Gaussian 16:  ES64L-G16RevA.03 25-Dec-2016

 ---------------------------------------------------------------
 #p ROCCSD(T)/cc-pVTZ Guess=Read SCF=(VeryTight,CDIIS,VShift=10)
 ---------------------------------------------------------------

 ---------
 O2_O2_266
 ---------
 Symbolic Z-matrix:
 Charge = -1 Multiplicity = 6

                         Standard orientation:
 ---------------------------------------------------------------------
 Center     Atomic      Atomic             Coordinates (Angstroms)
 Number     Number       Type             X           Y           Z
 ---------------------------------------------------------------------
      1          8           0        0.000000    0.000000    2.675667
      2          8           0        0.000000    0.000000    4.028047
      3          8           0        0.000000    0.000000   -4.028047
      4          8           0        0.000000    0.000000   -2.675667
 ---------------------------------------------------------------------

 SCF Done:  E(ROHF) =  -298.982730073     A.U. after   11 cycles
 E2 =    -0.1078452258D+01 EUMP2 =    -0.30006118233085D+03
 CCSD(T)
 CCSD(T)= -0.30003083884D+03

 The electronic state is 6-SGG.
 Alpha  occ. eigenvalues --  -20.50583 -20.50582 -20.48692 -20.48691  -1.36874
 Alpha  occ. eigenvalues --   -1.36873  -1.00971  -1.00791  -0.53025  -0.53025
 Alpha  occ. eigenvalues --   -0.53024  -0.53024  -0.52317  -0.52110  -0.33129
 Alpha  occ. eigenvalues --   -0.33129  -0.33129  -0.33129   0.19300
 Alpha virt. eigenvalues --    0.27498   0.84830   0.85251   0.89521   0.89521
 Alpha virt. eigenvalues --    0.89529   0.89529   0.94054   0.94451   0.98804
 Alpha virt. eigenvalues --    0.98804   0.98831   0.98831   1.09863   1.09866

 Mulliken charges and spin densities:
               1          2
     1  O   -0.203259   1.304352
     2  O   -0.296741   1.195648
     3  O   -0.296741   1.195648
     4  O   -0.203259   1.304352
 Sum of Mulliken charges =  -1.00000   5.00000

 Dipole moment (field-independent basis, Debye):
    X=             -0.0000    Y=             -0.0000    Z=              0.0000  Tot=              0.0000
 Quadrupole moment (field-independent basis, Debye-Ang):
   XX=            -22.1631   YY=            -22.1631   ZZ=            -85.6462
   XY=             -0.0000   XZ=              0.0000   YZ=             -0.0000

 P4SDQ=-299.9909167\CCSD=-299.9785726\CCSD(T)=-300.0308388\RMSD=9.097e-
 Normal termination of Gaussian 16 at Mon Jan 16 04:49:18 2023.
