 Gaussian 16, Revision A.03,
 Gaussian 16:  ES64L-G16RevA.03 25-Dec-2016

 ---------------------------------------------------------------
 #p ROCCSD(T)/cc-pVTZ Guess=Read SCF=(VeryTight,CDIIS,VShift=10)
 ---------------------------------------------------------------

 ---------
 O2_O2_217
 ---------
 Symbolic Z-matrix:
 Charge = -1 Multiplicity = 6

                         Standard orientation:
 ---------------------------------------------------------------------
 Center     Atomic      Atomic             Coordinates (Angstroms)
 Number     Number       Type             X           Y           Z
 ---------------------------------------------------------------------
      1          8           0        0.000000    0.000000    2.328781
      2          8           0        0.000000    0.000000    3.681162
      3          8           0        0.000000    0.000000   -3.681162
      4          8           0        0.000000    0.000000   -2.328781
 ---------------------------------------------------------------------

 SCF Done:  E(ROHF) =  -298.985098513     A.U. after   13 cycles
 E2 =    -0.1077444275D+01 EUMP2 =    -0.30006254278744D+03
 CCSD(T)
 CCSD(T)= -0.30003306726D+03

 The electronic state is 6-SGG.
 Alpha  occ. eigenvalues --  -20.50472 -20.50471 -20.48120 -20.48120  -1.36492
 Alpha  occ. eigenvalues --   -1.36491  -1.00554  -1.00368  -0.52672  -0.52672
 Alpha  occ. eigenvalues --   -0.52669  -0.52669  -0.51893  -0.51563  -0.32722
 Alpha  occ. eigenvalues --   -0.32722  -0.32717  -0.32717   0.19115
 Alpha virt. eigenvalues --    0.28838   0.84177   0.86836   0.89899   0.89899
 Alpha virt. eigenvalues --    0.89963   0.89963   0.93919   0.95824   0.99177
 Alpha virt. eigenvalues --    0.99177   0.99343   0.99343   1.10266   1.10267

 Mulliken charges and spin densities:
               1          2
     1  O   -0.193432   1.316350
     2  O   -0.306568   1.183650
     3  O   -0.306568   1.183650
     4  O   -0.193432   1.316350
 Sum of Mulliken charges =  -1.00000   5.00000

 Dipole moment (field-independent basis, Debye):
    X=             -0.0000    Y=              0.0000    Z=              0.0000  Tot=              0.0000
 Quadrupole moment (field-independent basis, Debye-Ang):
   XX=            -22.1692   YY=            -22.1692   ZZ=            -75.2982
   XY=             -0.0000   XZ=              0.0000   YZ=             -0.0000

 28\MP4SDQ=-299.9933767\CCSD=-299.9808405\CCSD(T)=-300.0330673\RMSD=4.3
 Normal termination of Gaussian 16 at Sun Jan 15 08:38:46 2023.
