 Gaussian 16, Revision A.03,
 Gaussian 16:  ES64L-G16RevA.03 25-Dec-2016

 ---------------------------------------------------------------
 #p ROCCSD(T)/cc-pVTZ Guess=Read SCF=(VeryTight,CDIIS,VShift=10)
 ---------------------------------------------------------------

 ---------
 O2_O2_132
 ---------
 Symbolic Z-matrix:
 Charge = -1 Multiplicity = 6

                         Standard orientation:
 ---------------------------------------------------------------------
 Center     Atomic      Atomic             Coordinates (Angstroms)
 Number     Number       Type             X           Y           Z
 ---------------------------------------------------------------------
      1          8           0        0.000000    0.000000    1.727042
      2          8           0        0.000000    0.000000    3.079422
      3          8           0        0.000000    0.000000   -3.079422
      4          8           0        0.000000    0.000000   -1.727042
 ---------------------------------------------------------------------

 SCF Done:  E(ROHF) =  -299.003090285     A.U. after   11 cycles
 E2 =    -0.1073978500D+01 EUMP2 =    -0.30007706878486D+03
 CCSD(T)
 CCSD(T)= -0.30005020353D+03

 The electronic state is 6-SGG.
 Alpha  occ. eigenvalues --  -20.51137 -20.51135 -20.46890 -20.46889  -1.35888
 Alpha  occ. eigenvalues --   -1.35865  -0.99788  -0.99466  -0.52244  -0.52244
 Alpha  occ. eigenvalues --   -0.52184  -0.52184  -0.51020  -0.49799  -0.32038
 Alpha  occ. eigenvalues --   -0.32038  -0.31941  -0.31941   0.17621
 Alpha virt. eigenvalues --    0.33987   0.78043   0.89916   0.89951   0.89951
 Alpha virt. eigenvalues --    0.91347   0.91347   0.92316   0.98809   0.98809
 Alpha virt. eigenvalues --    1.01979   1.01979   1.10923   1.11112   1.14700

 Mulliken charges and spin densities:
               1          2
     1  O   -0.166902   1.364630
     2  O   -0.333098   1.135370
     3  O   -0.333098   1.135370
     4  O   -0.166902   1.364630
 Sum of Mulliken charges =  -1.00000   5.00000

 Dipole moment (field-independent basis, Debye):
    X=             -0.0000    Y=              0.0000    Z=              0.0000  Tot=              0.0000
 Quadrupole moment (field-independent basis, Debye-Ang):
   XX=            -22.1974   YY=            -22.1974   ZZ=            -59.3049
   XY=             -0.0000   XZ=              0.0000   YZ=             -0.0000

 88\MP4SDQ=-300.011929\CCSD=-299.9981218\CCSD(T)=-300.0502035\RMSD=5.86
 Normal termination of Gaussian 16 at Sun Jan 15 04:51:01 2023.
