 Gaussian 16, Revision A.03,
 Gaussian 16:  ES64L-G16RevA.03 25-Dec-2016

 ---------------------------------------------------------------
 #p ROCCSD(T)/cc-pVTZ Guess=Read SCF=(VeryTight,CDIIS,VShift=10)
 ---------------------------------------------------------------

 --------
 O2_O2_30
 --------
 Symbolic Z-matrix:
 Charge = -1 Multiplicity = 6

                         Standard orientation:
 ---------------------------------------------------------------------
 Center     Atomic      Atomic             Coordinates (Angstroms)
 Number     Number       Type             X           Y           Z
 ---------------------------------------------------------------------
      1          8           0        0.000000    0.000000    1.004954
      2          8           0        0.000000    0.000000    2.357334
      3          8           0        0.000000    0.000000   -2.357334
      4          8           0        0.000000    0.000000   -1.004954
 ---------------------------------------------------------------------

 SCF Done:  E(ROHF) =  -298.988360950     A.U. after   14 cycles
 E2 =    -0.1080802342D+01 EUMP2 =    -0.30006916329266D+03
 CCSD(T)
 CCSD(T)= -0.30004220619D+03

 The electronic state is 6-SGG.
 Alpha  occ. eigenvalues --  -20.44887 -20.44882 -20.43811 -20.43810  -1.32987
 Alpha  occ. eigenvalues --   -1.31832  -0.99513  -0.94180  -0.53036  -0.49108
 Alpha  occ. eigenvalues --   -0.49108  -0.47536  -0.47536  -0.41888  -0.29824
 Alpha  occ. eigenvalues --   -0.29824  -0.27076  -0.27076   0.15224
 Alpha virt. eigenvalues --    0.44455   0.86961   0.90012   0.90719   0.90719
 Alpha virt. eigenvalues --    0.94800   0.94800   0.98554   0.98554   1.11917
 Alpha virt. eigenvalues --    1.12579   1.15814   1.15814   1.17246   1.63360

 Mulliken charges and spin densities:
               1          2
     1  O   -0.169177   1.222138
     2  O   -0.330823   1.277862
     3  O   -0.330823   1.277862
     4  O   -0.169177   1.222138
 Sum of Mulliken charges =  -1.00000   5.00000

 Dipole moment (field-independent basis, Debye):
    X=             -0.0000    Y=              0.0000    Z=              0.0000  Tot=              0.0000
 Quadrupole moment (field-independent basis, Debye-Ang):
   XX=            -22.1741   YY=            -22.1741   ZZ=            -44.9519
   XY=             -0.0000   XZ=              0.0000   YZ=             -0.0000

 MP4SDQ=-300.0022654\CCSD=-299.9886094\CCSD(T)=-300.0422062\RMSD=2.259e
 Normal termination of Gaussian 16 at Sun Jan 15 00:25:47 2023.
