 Gaussian 16, Revision A.03,
 Gaussian 16:  ES64L-G16RevA.03 25-Dec-2016

 ---------------------------------------------------------------
 #p ROCCSD(T)/cc-pVTZ Guess=Read SCF=(VeryTight,CDIIS,VShift=10)
 ---------------------------------------------------------------

 --------
 O2_O2_52
 --------
 Symbolic Z-matrix:
 Charge = -1 Multiplicity = 6

                         Standard orientation:
 ---------------------------------------------------------------------
 Center     Atomic      Atomic             Coordinates (Angstroms)
 Number     Number       Type             X           Y           Z
 ---------------------------------------------------------------------
      1          8           0        0.000000    0.000000    1.160699
      2          8           0        0.000000    0.000000    2.513079
      3          8           0        0.000000    0.000000   -2.513079
      4          8           0        0.000000    0.000000   -1.160699
 ---------------------------------------------------------------------

 SCF Done:  E(ROHF) =  -299.004120908     A.U. after   14 cycles
 E2 =    -0.1078401880D+01 EUMP2 =    -0.30008252278819D+03
 CCSD(T)
 CCSD(T)= -0.30005501980D+03

 The electronic state is 6-SGG.
 Alpha  occ. eigenvalues --  -20.47666 -20.47663 -20.44196 -20.44195  -1.33697
 Alpha  occ. eigenvalues --   -1.33189  -0.98746  -0.96191  -0.51648  -0.49928
 Alpha  occ. eigenvalues --   -0.49928  -0.49077  -0.49077  -0.45044  -0.30113
 Alpha  occ. eigenvalues --   -0.30113  -0.28878  -0.28878   0.15923
 Alpha virt. eigenvalues --    0.40547   0.88088   0.89038   0.89038   0.91302
 Alpha virt. eigenvalues --    0.94285   0.94285   0.98040   0.98040   1.01603
 Alpha virt. eigenvalues --    1.12137   1.12137   1.12296   1.13289   1.55420

 Mulliken charges and spin densities:
               1          2
     1  O   -0.149708   1.308387
     2  O   -0.350292   1.191613
     3  O   -0.350292   1.191613
     4  O   -0.149708   1.308387
 Sum of Mulliken charges =  -1.00000   5.00000

 Dipole moment (field-independent basis, Debye):
    X=             -0.0000    Y=             -0.0000    Z=              0.0000  Tot=              0.0000
 Quadrupole moment (field-independent basis, Debye-Ang):
   XX=            -22.1960   YY=            -22.1960   ZZ=            -48.2553
   XY=             -0.0000   XZ=              0.0000   YZ=             -0.0000

 8\MP4SDQ=-300.0159413\CCSD=-300.0020267\CCSD(T)=-300.0550198\RMSD=5.15
 Normal termination of Gaussian 16 at Sun Jan 15 01:22:39 2023.
