 Gaussian 16, Revision A.03,
 Gaussian 16:  ES64L-G16RevA.03 25-Dec-2016

 ---------------------------------------------------------------
 #p ROCCSD(T)/cc-pVTZ Guess=Read SCF=(VeryTight,CDIIS,VShift=10)
 ---------------------------------------------------------------

 -------
 O2_O2_4
 -------
 Symbolic Z-matrix:
 Charge = -1 Multiplicity = 6

                         Standard orientation:
 ---------------------------------------------------------------------
 Center     Atomic      Atomic             Coordinates (Angstroms)
 Number     Number       Type             X           Y           Z
 ---------------------------------------------------------------------
      1          8           0        0.000000    0.000000    0.820892
      2          8           0        0.000000    0.000000    2.173273
      3          8           0        0.000000    0.000000   -2.173273
      4          8           0        0.000000    0.000000   -0.820892
 ---------------------------------------------------------------------

 SCF Done:  E(ROHF) =  -298.924372913     A.U. after   11 cycles
 E2 =    -0.1065222972D+01 EUMP2 =    -0.29998959588488D+03
 CCSD(T)
 CCSD(T)= -0.29998015800D+03

 The electronic state is 6-SGG.
 Alpha  occ. eigenvalues --  -20.43382 -20.43381 -20.39322 -20.39308  -1.32561
 Alpha  occ. eigenvalues --   -1.29689  -1.02912  -0.89878  -0.55836  -0.48592
 Alpha  occ. eigenvalues --   -0.48592  -0.45860  -0.45860  -0.35039  -0.30009
 Alpha  occ. eigenvalues --   -0.30009  -0.22392  -0.22392   0.13293
 Alpha virt. eigenvalues --    0.54945   0.85351   0.87938   0.93529   0.93529
 Alpha virt. eigenvalues --    0.95097   0.95097   1.01470   1.01470   1.12482
 Alpha virt. eigenvalues --    1.12578   1.20270   1.20270   1.28536   1.65238

 Mulliken charges and spin densities:
               1          2
     1  O   -0.230378   1.029297
     2  O   -0.269622   1.470703
     3  O   -0.269622   1.470703
     4  O   -0.230378   1.029297
 Sum of Mulliken charges =  -1.00000   5.00000

 Dipole moment (field-independent basis, Debye):
    X=             -0.0000    Y=              0.0000    Z=             -0.0000  Tot=              0.0000
 Quadrupole moment (field-independent basis, Debye-Ang):
   XX=            -22.0543   YY=            -22.0543   ZZ=            -40.4499
   XY=             -0.0000   XZ=              0.0000   YZ=             -0.0000

 \MP4SDQ=-299.9369108\CCSD=-299.9256955\CCSD(T)=-299.980158\RMSD=3.013e
 Normal termination of Gaussian 16 at Sat Jan 14 23:17:37 2023.
