 Gaussian 16, Revision A.03,
 Gaussian 16:  ES64L-G16RevA.03 25-Dec-2016

 ---------------------------------------------------------------
 #p ROCCSD(T)/cc-pVTZ Guess=Read SCF=(VeryTight,CDIIS,VShift=10)
 ---------------------------------------------------------------

 ---------
 O2_O2_255
 ---------
 Symbolic Z-matrix:
 Charge = -1 Multiplicity = 6

                         Standard orientation:
 ---------------------------------------------------------------------
 Center     Atomic      Atomic             Coordinates (Angstroms)
 Number     Number       Type             X           Y           Z
 ---------------------------------------------------------------------
      1          8           0        0.000000    0.000000    2.597795
      2          8           0        0.000000    0.000000    3.950175
      3          8           0        0.000000    0.000000   -3.950175
      4          8           0        0.000000    0.000000   -2.597795
 ---------------------------------------------------------------------

 SCF Done:  E(ROHF) =  -298.982992576     A.U. after   10 cycles
 E2 =    -0.1078266718D+01 EUMP2 =    -0.30006125929365D+03
 CCSD(T)
 CCSD(T)= -0.30003108976D+03

 The electronic state is 6-SGG.
 Alpha  occ. eigenvalues --  -20.50543 -20.50543 -20.48563 -20.48563  -1.36787
 Alpha  occ. eigenvalues --   -1.36786  -1.00878  -1.00697  -0.52942  -0.52942
 Alpha  occ. eigenvalues --   -0.52942  -0.52942  -0.52227  -0.52000  -0.33037
 Alpha  occ. eigenvalues --   -0.33037  -0.33036  -0.33036   0.19278
 Alpha virt. eigenvalues --    0.27742   0.84821   0.85483   0.89608   0.89608
 Alpha virt. eigenvalues --    0.89620   0.89620   0.94091   0.94633   0.98893
 Alpha virt. eigenvalues --    0.98893   0.98932   0.98932   1.09951   1.09954

 Mulliken charges and spin densities:
               1          2
     1  O   -0.201194   1.306759
     2  O   -0.298806   1.193241
     3  O   -0.298806   1.193241
     4  O   -0.201194   1.306759
 Sum of Mulliken charges =  -1.00000   5.00000

 Dipole moment (field-independent basis, Debye):
    X=             -0.0000    Y=              0.0000    Z=              0.0000  Tot=              0.0000
 Quadrupole moment (field-independent basis, Debye-Ang):
   XX=            -22.1639   YY=            -22.1639   ZZ=            -83.2389
   XY=             -0.0000   XZ=              0.0000   YZ=             -0.0000

 P4SDQ=-299.9911972\CCSD=-299.9788277\CCSD(T)=-300.0310898\RMSD=4.232e-
 Normal termination of Gaussian 16 at Mon Jan 16 04:36:22 2023.
