 Gaussian 16, Revision A.03,
 Gaussian 16:  ES64L-G16RevA.03 25-Dec-2016

 ---------------------------------------------------------------
 #p ROCCSD(T)/cc-pVTZ Guess=Read SCF=(VeryTight,CDIIS,VShift=10)
 ---------------------------------------------------------------

 --------
 O2_O2_68
 --------
 Symbolic Z-matrix:
 Charge = -1 Multiplicity = 6

                         Standard orientation:
 ---------------------------------------------------------------------
 Center     Atomic      Atomic             Coordinates (Angstroms)
 Number     Number       Type             X           Y           Z
 ---------------------------------------------------------------------
      1          8           0        0.000000    0.000000    1.273967
      2          8           0        0.000000    0.000000    2.626348
      3          8           0        0.000000    0.000000   -2.626348
      4          8           0        0.000000    0.000000   -1.273967
 ---------------------------------------------------------------------

 SCF Done:  E(ROHF) =  -299.007754226     A.U. after   14 cycles
 E2 =    -0.1076188182D+01 EUMP2 =    -0.30008394240797D+03
 CCSD(T)
 CCSD(T)= -0.30005719818D+03

 The electronic state is 6-SGG.
 Alpha  occ. eigenvalues --  -20.48982 -20.48980 -20.44649 -20.44648  -1.34226
 Alpha  occ. eigenvalues --   -1.33954  -0.98711  -0.97173  -0.51099  -0.50525
 Alpha  occ. eigenvalues --   -0.50525  -0.50008  -0.50008  -0.46521  -0.30463
 Alpha  occ. eigenvalues --   -0.30463  -0.29744  -0.29744   0.16274
 Alpha virt. eigenvalues --    0.38825   0.88675   0.88811   0.88811   0.91792
 Alpha virt. eigenvalues --    0.92923   0.93769   0.93769   0.97964   0.97964
 Alpha virt. eigenvalues --    1.09536   1.09536   1.12034   1.12736   1.48445

 Mulliken charges and spin densities:
               1          2
     1  O   -0.147135   1.343376
     2  O   -0.352865   1.156624
     3  O   -0.352865   1.156624
     4  O   -0.147135   1.343376
 Sum of Mulliken charges =  -1.00000   5.00000

 Dipole moment (field-independent basis, Debye):
    X=             -0.0000    Y=             -0.0000    Z=              0.0000  Tot=              0.0000
 Quadrupole moment (field-independent basis, Debye-Ang):
   XX=            -22.1968   YY=            -22.1968   ZZ=            -50.3694
   XY=             -0.0000   XZ=              0.0000   YZ=             -0.0000

 4\MP4SDQ=-300.0185041\CCSD=-300.0045127\CCSD(T)=-300.0571982\RMSD=2.01
 Normal termination of Gaussian 16 at Sun Jan 15 02:05:49 2023.
