 Gaussian 16, Revision A.03,
 Gaussian 16:  ES64L-G16RevA.03 25-Dec-2016

 ---------------------------------------------------------------
 #p ROCCSD(T)/cc-pVTZ Guess=Read SCF=(VeryTight,CDIIS,VShift=10)
 ---------------------------------------------------------------

 ---------
 O2_O2_203
 ---------
 Symbolic Z-matrix:
 Charge = -1 Multiplicity = 6

                         Standard orientation:
 ---------------------------------------------------------------------
 Center     Atomic      Atomic             Coordinates (Angstroms)
 Number     Number       Type             X           Y           Z
 ---------------------------------------------------------------------
      1          8           0        0.000000    0.000000    2.229671
      2          8           0        0.000000    0.000000    3.582052
      3          8           0        0.000000    0.000000   -3.582052
      4          8           0        0.000000    0.000000   -2.229671
 ---------------------------------------------------------------------

 SCF Done:  E(ROHF) =  -298.986658706     A.U. after   12 cycles
 E2 =    -0.1077041326D+01 EUMP2 =    -0.30006370003261D+03
 CCSD(T)
 CCSD(T)= -0.30003452461D+03

 The electronic state is 6-SGG.
 Alpha  occ. eigenvalues --  -20.50496 -20.50495 -20.47965 -20.47965  -1.36394
 Alpha  occ. eigenvalues --   -1.36392  -1.00440  -1.00248  -0.52588  -0.52588
 Alpha  occ. eigenvalues --   -0.52584  -0.52584  -0.51762  -0.51370  -0.32618
 Alpha  occ. eigenvalues --   -0.32618  -0.32609  -0.32609   0.18997
 Alpha virt. eigenvalues --    0.29388   0.83519   0.87568   0.89991   0.89991
 Alpha virt. eigenvalues --    0.90106   0.90106   0.93687   0.96765   0.99251
 Alpha virt. eigenvalues --    0.99251   0.99539   0.99539   1.10379   1.10383

 Mulliken charges and spin densities:
               1          2
     1  O   -0.190323   1.320750
     2  O   -0.309677   1.179250
     3  O   -0.309677   1.179250
     4  O   -0.190323   1.320750
 Sum of Mulliken charges =  -1.00000   5.00000

 Dipole moment (field-independent basis, Debye):
    X=             -0.0000    Y=              0.0000    Z=             -0.0000  Tot=              0.0000
 Quadrupole moment (field-independent basis, Debye-Ang):
   XX=            -22.1726   YY=            -22.1726   ZZ=            -72.4953
   XY=             -0.0000   XZ=              0.0000   YZ=             -0.0000

 SDQ=-299.9949732\CCSD=-299.9823235\CCSD(T)=-300.0345246\RMSD=9.755e-09
 Normal termination of Gaussian 16 at Sun Jan 15 07:59:58 2023.
