 Gaussian 16, Revision A.03,
 Gaussian 16:  ES64L-G16RevA.03 25-Dec-2016

 ---------------------------------------------------------------
 #p ROCCSD(T)/cc-pVTZ Guess=Read SCF=(VeryTight,CDIIS,VShift=10)
 ---------------------------------------------------------------

 ---------
 O2_O2_277
 ---------
 Symbolic Z-matrix:
 Charge = -1 Multiplicity = 6

                         Standard orientation:
 ---------------------------------------------------------------------
 Center     Atomic      Atomic             Coordinates (Angstroms)
 Number     Number       Type             X           Y           Z
 ---------------------------------------------------------------------
      1          8           0        0.000000    0.000000    2.753539
      2          8           0        0.000000    0.000000    4.105919
      3          8           0        0.000000    0.000000   -4.105919
      4          8           0        0.000000    0.000000   -2.753539
 ---------------------------------------------------------------------

 SCF Done:  E(ROHF) =  -298.982550623     A.U. after   15 cycles
 E2 =    -0.1078621243D+01 EUMP2 =    -0.30006117186586D+03
 CCSD(T)
 CCSD(T)= -0.30003066508D+03

 The electronic state is 6-SGG.
 Alpha  occ. eigenvalues --  -20.50627 -20.50626 -20.48818 -20.48817  -1.36960
 Alpha  occ. eigenvalues --   -1.36959  -1.01061  -1.00882  -0.53107  -0.53107
 Alpha  occ. eigenvalues --   -0.53106  -0.53106  -0.52404  -0.52214  -0.33220
 Alpha  occ. eigenvalues --   -0.33220  -0.33220  -0.33220   0.19315
 Alpha virt. eigenvalues --    0.27275   0.84803   0.85066   0.89436   0.89436
 Alpha virt. eigenvalues --    0.89441   0.89441   0.93999   0.94301   0.98716
 Alpha virt. eigenvalues --    0.98716   0.98736   0.98736   1.09778   1.09779

 Mulliken charges and spin densities:
               1          2
     1  O   -0.205233   1.302072
     2  O   -0.294767   1.197928
     3  O   -0.294767   1.197928
     4  O   -0.205233   1.302072
 Sum of Mulliken charges =  -1.00000   5.00000

 Dipole moment (field-independent basis, Debye):
    X=             -0.0000    Y=              0.0000    Z=             -0.0000  Tot=              0.0000
 Quadrupole moment (field-independent basis, Debye-Ang):
   XX=            -22.1624   YY=            -22.1624   ZZ=            -88.1080
   XY=             -0.0000   XZ=              0.0000   YZ=             -0.0000

 P4SDQ=-299.9907203\CCSD=-299.9783962\CCSD(T)=-300.0306651\RMSD=4.821e-
 Normal termination of Gaussian 16 at Mon Jan 16 05:03:32 2023.
