 Gaussian 16, Revision A.03,
 Gaussian 16:  ES64L-G16RevA.03 25-Dec-2016

 ---------------------------------------------------------------
 #p ROCCSD(T)/cc-pVTZ Guess=Read SCF=(VeryTight,CDIIS,VShift=10)
 ---------------------------------------------------------------

 ---------
 O2_O2_233
 ---------
 Symbolic Z-matrix:
 Charge = -1 Multiplicity = 6

                         Standard orientation:
 ---------------------------------------------------------------------
 Center     Atomic      Atomic             Coordinates (Angstroms)
 Number     Number       Type             X           Y           Z
 ---------------------------------------------------------------------
      1          8           0        0.000000    0.000000    2.442051
      2          8           0        0.000000    0.000000    3.794431
      3          8           0        0.000000    0.000000   -3.794431
      4          8           0        0.000000    0.000000   -2.442051
 ---------------------------------------------------------------------

 SCF Done:  E(ROHF) =  -298.983913029     A.U. after   12 cycles
 E2 =    -0.1077831536D+01 EUMP2 =    -0.30006174456533D+03
 CCSD(T)
 CCSD(T)= -0.30003195782D+03

 The electronic state is 6-SGG.
 Alpha  occ. eigenvalues --  -20.50484 -20.50483 -20.48305 -20.48304  -1.36614
 Alpha  occ. eigenvalues --   -1.36612  -1.00690  -1.00507  -0.52780  -0.52780
 Alpha  occ. eigenvalues --   -0.52779  -0.52779  -0.52038  -0.51760  -0.32851
 Alpha  occ. eigenvalues --   -0.32851  -0.32849  -0.32849   0.19206
 Alpha virt. eigenvalues --    0.28318   0.84605   0.86146   0.89780   0.89780
 Alpha virt. eigenvalues --    0.89813   0.89813   0.94064   0.95165   0.99066
 Alpha virt. eigenvalues --    0.99066   0.99154   0.99154   1.10132   1.10136

 Mulliken charges and spin densities:
               1          2
     1  O   -0.196812   1.312013
     2  O   -0.303188   1.187987
     3  O   -0.303188   1.187987
     4  O   -0.196812   1.312013
 Sum of Mulliken charges =  -1.00000   5.00000

 Dipole moment (field-independent basis, Debye):
    X=             -0.0000    Y=              0.0000    Z=             -0.0000  Tot=              0.0000
 Quadrupole moment (field-independent basis, Debye-Ang):
   XX=            -22.1664   YY=            -22.1664   ZZ=            -78.5764
   XY=             -0.0000   XZ=              0.0000   YZ=             -0.0000

 SDQ=-299.9921573\CCSD=-299.979711\CCSD(T)=-300.0319578\RMSD=7.213e-09\
 Normal termination of Gaussian 16 at Mon Jan 16 04:10:43 2023.
