 Gaussian 16, Revision A.03,
 Gaussian 16:  ES64L-G16RevA.03 25-Dec-2016

 ---------------------------------------------------------------
 #p ROCCSD(T)/cc-pVTZ Guess=Read SCF=(VeryTight,CDIIS,VShift=10)
 ---------------------------------------------------------------

 ---------
 O2_O2_149
 ---------
 Symbolic Z-matrix:
 Charge = -1 Multiplicity = 6

                         Standard orientation:
 ---------------------------------------------------------------------
 Center     Atomic      Atomic             Coordinates (Angstroms)
 Number     Number       Type             X           Y           Z
 ---------------------------------------------------------------------
      1          8           0        0.000000    0.000000    1.847390
      2          8           0        0.000000    0.000000    3.199770
      3          8           0        0.000000    0.000000   -3.199770
      4          8           0        0.000000    0.000000   -1.847390
 ---------------------------------------------------------------------

 SCF Done:  E(ROHF) =  -298.998549370     A.U. after   10 cycles
 E2 =    -0.1074765021D+01 EUMP2 =    -0.30007331439110D+03
 CCSD(T)
 CCSD(T)= -0.30004575782D+03

 The electronic state is 6-SGG.
 Alpha  occ. eigenvalues --  -20.51002 -20.51000 -20.47282 -20.47281  -1.36066
 Alpha  occ. eigenvalues --   -1.36053  -1.00000  -0.99742  -0.52375  -0.52375
 Alpha  occ. eigenvalues --   -0.52342  -0.52342  -0.51207  -0.50311  -0.32249
 Alpha  occ. eigenvalues --   -0.32249  -0.32192  -0.32192   0.18050
 Alpha virt. eigenvalues --    0.32653   0.78761   0.89761   0.90074   0.90074
 Alpha virt. eigenvalues --    0.90905   0.90905   0.92487   0.99066   0.99066
 Alpha virt. eigenvalues --    1.01010   1.01010   1.07818   1.10794   1.10875

 Mulliken charges and spin densities:
               1          2
     1  O   -0.174359   1.350988
     2  O   -0.325641   1.149012
     3  O   -0.325641   1.149012
     4  O   -0.174359   1.350988
 Sum of Mulliken charges =  -1.00000   5.00000

 Dipole moment (field-independent basis, Debye):
    X=             -0.0000    Y=              0.0000    Z=              0.0000  Tot=              0.0000
 Quadrupole moment (field-independent basis, Debye-Ang):
   XX=            -22.1929   YY=            -22.1929   ZZ=            -62.2226
   XY=             -0.0000   XZ=              0.0000   YZ=             -0.0000

 P4SDQ=-300.0071798\CCSD=-299.9936845\CCSD(T)=-300.0457578\RMSD=5.854e-
 Normal termination of Gaussian 16 at Sun Jan 15 05:35:47 2023.
