 Gaussian 16, Revision A.03,
 Gaussian 16:  ES64L-G16RevA.03 25-Dec-2016

 ---------------------------------------------------------------
 #p ROCCSD(T)/cc-pVTZ Guess=Read SCF=(VeryTight,CDIIS,VShift=10)
 ---------------------------------------------------------------

 ---------
 O2_O2_225
 ---------
 Symbolic Z-matrix:
 Charge = -1 Multiplicity = 6

                         Standard orientation:
 ---------------------------------------------------------------------
 Center     Atomic      Atomic             Coordinates (Angstroms)
 Number     Number       Type             X           Y           Z
 ---------------------------------------------------------------------
      1          8           0        0.000000    0.000000    2.385416
      2          8           0        0.000000    0.000000    3.737796
      3          8           0        0.000000    0.000000   -3.737796
      4          8           0        0.000000    0.000000   -2.385416
 ---------------------------------------------------------------------

 SCF Done:  E(ROHF) =  -298.984437495     A.U. after   11 cycles
 E2 =    -0.1077646625D+01 EUMP2 =    -0.30006208412018D+03
 CCSD(T)
 CCSD(T)= -0.30003244919D+03

 The electronic state is 6-SGG.
 Alpha  occ. eigenvalues --  -20.50473 -20.50473 -20.48212 -20.48211  -1.36552
 Alpha  occ. eigenvalues --   -1.36551  -1.00622  -1.00437  -0.52725  -0.52725
 Alpha  occ. eigenvalues --   -0.52723  -0.52723  -0.51966  -0.51664  -0.32786
 Alpha  occ. eigenvalues --   -0.32786  -0.32782  -0.32782   0.19166
 Alpha virt. eigenvalues --    0.28565   0.84428   0.86468   0.89841   0.89841
 Alpha virt. eigenvalues --    0.89887   0.89887   0.94007   0.95454   0.99124
 Alpha virt. eigenvalues --    0.99124   0.99245   0.99245   1.10199   1.10202

 Mulliken charges and spin densities:
               1          2
     1  O   -0.195142   1.314111
     2  O   -0.304858   1.185889
     3  O   -0.304858   1.185889
     4  O   -0.195142   1.314111
 Sum of Mulliken charges =  -1.00000   5.00000

 Dipole moment (field-independent basis, Debye):
    X=             -0.0000    Y=              0.0000    Z=             -0.0000  Tot=              0.0000
 Quadrupole moment (field-independent basis, Debye-Ang):
   XX=            -22.1677   YY=            -22.1677   ZZ=            -76.9265
   XY=             -0.0000   XZ=              0.0000   YZ=             -0.0000

 41\MP4SDQ=-299.992698\CCSD=-299.9802112\CCSD(T)=-300.0324492\RMSD=1.03
 Normal termination of Gaussian 16 at Sun Jan 15 08:59:34 2023.
