 Gaussian 16, Revision A.03,
 Gaussian 16:  ES64L-G16RevA.03 25-Dec-2016

 ---------------------------------------------------------------
 #p ROCCSD(T)/cc-pVTZ Guess=Read SCF=(VeryTight,CDIIS,VShift=10)
 ---------------------------------------------------------------

 -------
 O2_O2_2
 -------
 Symbolic Z-matrix:
 Charge = -1 Multiplicity = 6

                         Standard orientation:
 ---------------------------------------------------------------------
 Center     Atomic      Atomic             Coordinates (Angstroms)
 Number     Number       Type             X           Y           Z
 ---------------------------------------------------------------------
      1          8           0        0.000000    0.000000    0.806734
      2          8           0        0.000000    0.000000    2.159114
      3          8           0        0.000000    0.000000   -2.159114
      4          8           0        0.000000    0.000000   -0.806734
 ---------------------------------------------------------------------

 SCF Done:  E(ROHF) =  -298.915569976     A.U. after   11 cycles
 E2 =    -0.1062332452D+01 EUMP2 =    -0.29997790242820D+03
 CCSD(T)
 CCSD(T)= -0.29997104492D+03

 The electronic state is 6-SGG.
 Alpha  occ. eigenvalues --  -20.43289 -20.43288 -20.38828 -20.38813  -1.32598
 Alpha  occ. eigenvalues --   -1.29504  -1.03390  -0.89433  -0.56108  -0.48608
 Alpha  occ. eigenvalues --   -0.48608  -0.45756  -0.45756  -0.34320  -0.30085
 Alpha  occ. eigenvalues --   -0.30085  -0.21862  -0.21862   0.13034
 Alpha virt. eigenvalues --    0.56220   0.85296   0.87748   0.93645   0.93645
 Alpha virt. eigenvalues --    0.95122   0.95122   1.01871   1.01871   1.12420
 Alpha virt. eigenvalues --    1.12530   1.20597   1.20597   1.29142   1.65176

 Mulliken charges and spin densities:
               1          2
     1  O   -0.235575   1.011664
     2  O   -0.264425   1.488336
     3  O   -0.264425   1.488336
     4  O   -0.235575   1.011664
 Sum of Mulliken charges =  -1.00000   5.00000

 Dipole moment (field-independent basis, Debye):
    X=             -0.0000    Y=              0.0000    Z=              0.0000  Tot=              0.0000
 Quadrupole moment (field-independent basis, Debye-Ang):
   XX=            -22.0369   YY=            -22.0369   ZZ=            -40.1489
   XY=             -0.0000   XZ=              0.0000   YZ=             -0.0000

 SDQ=-299.927349\CCSD=-299.916524\CCSD(T)=-299.9710449\RMSD=3.332e-09\P
 Normal termination of Gaussian 16 at Sat Jan 14 23:12:30 2023.
