 Gaussian 16, Revision A.03,
 Gaussian 16:  ES64L-G16RevA.03 25-Dec-2016

 ---------------------------------------------------------------
 #p ROCCSD(T)/cc-pVTZ Guess=Read SCF=(VeryTight,CDIIS,VShift=10)
 ---------------------------------------------------------------

 ---------
 O2_O2_298
 ---------
 Symbolic Z-matrix:
 Charge = -1 Multiplicity = 6

                         Standard orientation:
 ---------------------------------------------------------------------
 Center     Atomic      Atomic             Coordinates (Angstroms)
 Number     Number       Type             X           Y           Z
 ---------------------------------------------------------------------
      1          8           0        0.000000    0.000000    2.902204
      2          8           0        0.000000    0.000000    4.254584
      3          8           0        0.000000    0.000000   -4.254584
      4          8           0        0.000000    0.000000   -2.902204
 ---------------------------------------------------------------------

 SCF Done:  E(ROHF) =  -298.982351427     A.U. after    9 cycles
 E2 =    -0.1078907551D+01 EUMP2 =    -0.30006125897875D+03
 CCSD(T)
 CCSD(T)= -0.30003046757D+03

 The electronic state is 6-SGG.
 Alpha  occ. eigenvalues --  -20.50713 -20.50713 -20.49048 -20.49047  -1.37117
 Alpha  occ. eigenvalues --   -1.37116  -1.01226  -1.01047  -0.53258  -0.53258
 Alpha  occ. eigenvalues --   -0.53258  -0.53258  -0.52561  -0.52398  -0.33388
 Alpha  occ. eigenvalues --   -0.33388  -0.33387  -0.33387   0.19334
 Alpha virt. eigenvalues --    0.26896   0.84692   0.84798   0.89280   0.89280
 Alpha virt. eigenvalues --    0.89283   0.89283   0.93865   0.94069   0.98554
 Alpha virt. eigenvalues --    0.98554   0.98567   0.98567   1.09621   1.09622

 Mulliken charges and spin densities:
               1          2
     1  O   -0.208737   1.298041
     2  O   -0.291263   1.201959
     3  O   -0.291263   1.201959
     4  O   -0.208737   1.298041
 Sum of Mulliken charges =  -1.00000   5.00000

 Dipole moment (field-independent basis, Debye):
    X=             -0.0000    Y=              0.0000    Z=              0.0000  Tot=              0.0000
 Quadrupole moment (field-independent basis, Debye-Ang):
   XX=            -22.1616   YY=            -22.1616   ZZ=            -92.9665
   XY=             -0.0000   XZ=              0.0000   YZ=             -0.0000

 DQ=-299.9904917\CCSD=-299.9781957\CCSD(T)=-300.0304676\RMSD=7.204e-09\
 Normal termination of Gaussian 16 at Mon Jan 16 05:27:41 2023.
