 Gaussian 16, Revision A.03,
 Gaussian 16:  ES64L-G16RevA.03 25-Dec-2016

 ---------------------------------------------------------------
 #p ROCCSD(T)/cc-pVTZ Guess=Read SCF=(VeryTight,CDIIS,VShift=10)
 ---------------------------------------------------------------

 ---------
 O2_O2_222
 ---------
 Symbolic Z-matrix:
 Charge = -1 Multiplicity = 6

                         Standard orientation:
 ---------------------------------------------------------------------
 Center     Atomic      Atomic             Coordinates (Angstroms)
 Number     Number       Type             X           Y           Z
 ---------------------------------------------------------------------
      1          8           0        0.000000    0.000000    2.364178
      2          8           0        0.000000    0.000000    3.716558
      3          8           0        0.000000    0.000000   -3.716558
      4          8           0        0.000000    0.000000   -2.364178
 ---------------------------------------------------------------------

 SCF Done:  E(ROHF) =  -298.984668061     A.U. after   11 cycles
 E2 =    -0.1077572907D+01 EUMP2 =    -0.30006224096734D+03
 CCSD(T)
 CCSD(T)= -0.30003266489D+03

 The electronic state is 6-SGG.
 Alpha  occ. eigenvalues --  -20.50472 -20.50471 -20.48177 -20.48177  -1.36529
 Alpha  occ. eigenvalues --   -1.36528  -1.00596  -1.00411  -0.52704  -0.52704
 Alpha  occ. eigenvalues --   -0.52702  -0.52702  -0.51939  -0.51627  -0.32762
 Alpha  occ. eigenvalues --   -0.32762  -0.32758  -0.32758   0.19148
 Alpha virt. eigenvalues --    0.28664   0.84343   0.86601   0.89863   0.89863
 Alpha virt. eigenvalues --    0.89915   0.89915   0.93978   0.95582   0.99145
 Alpha virt. eigenvalues --    0.99145   0.99281   0.99281   1.10224   1.10226

 Mulliken charges and spin densities:
               1          2
     1  O   -0.194506   1.314932
     2  O   -0.305494   1.185068
     3  O   -0.305494   1.185068
     4  O   -0.194506   1.314932
 Sum of Mulliken charges =  -1.00000   5.00000

 Dipole moment (field-independent basis, Debye):
    X=             -0.0000    Y=              0.0000    Z=             -0.0000  Tot=              0.0000
 Quadrupole moment (field-independent basis, Debye-Ang):
   XX=            -22.1682   YY=            -22.1682   ZZ=            -76.3134
   XY=             -0.0000   XZ=              0.0000   YZ=             -0.0000

 \MP4SDQ=-299.992935\CCSD=-299.9804308\CCSD(T)=-300.0326649\RMSD=1.067e
 Normal termination of Gaussian 16 at Sun Jan 15 08:52:00 2023.
