 Gaussian 16, Revision A.03,
 Gaussian 16:  ES64L-G16RevA.03 25-Dec-2016

 ---------------------------------------------------------------
 #p ROCCSD(T)/cc-pVTZ Guess=Read SCF=(VeryTight,CDIIS,VShift=10)
 ---------------------------------------------------------------

 --------
 O2_O2_19
 --------
 Symbolic Z-matrix:
 Charge = -1 Multiplicity = 6

                         Standard orientation:
 ---------------------------------------------------------------------
 Center     Atomic      Atomic             Coordinates (Angstroms)
 Number     Number       Type             X           Y           Z
 ---------------------------------------------------------------------
      1          8           0        0.000000    0.000000    0.927082
      2          8           0        0.000000    0.000000    2.279462
      3          8           0        0.000000    0.000000   -2.279462
      4          8           0        0.000000    0.000000   -0.927082
 ---------------------------------------------------------------------

 SCF Done:  E(ROHF) =  -298.970380846     A.U. after   14 cycles
 E2 =    -0.1078607623D+01 EUMP2 =    -0.30004898846842D+03
 CCSD(T)
 CCSD(T)= -0.30002579390D+03

 The electronic state is 6-SGG.
 Alpha  occ. eigenvalues --  -20.43709 -20.43708 -20.42829 -20.42822  -1.32688
 Alpha  occ. eigenvalues --   -1.30988  -1.00459  -0.92683  -0.54057  -0.48767
 Alpha  occ. eigenvalues --   -0.48767  -0.46745  -0.46745  -0.39515  -0.29793
 Alpha  occ. eigenvalues --   -0.29793  -0.25573  -0.25573   0.14648
 Alpha virt. eigenvalues --    0.47749   0.86225   0.89221   0.92070   0.92070
 Alpha virt. eigenvalues --    0.94953   0.94953   0.99274   0.99274   1.12612
 Alpha virt. eigenvalues --    1.12647   1.17704   1.17704   1.22647   1.66507

 Mulliken charges and spin densities:
               1          2
     1  O   -0.190975   1.152561
     2  O   -0.309025   1.347439
     3  O   -0.309025   1.347439
     4  O   -0.190975   1.152561
 Sum of Mulliken charges =  -1.00000   5.00000

 Dipole moment (field-independent basis, Debye):
    X=             -0.0000    Y=              0.0000    Z=              0.0000  Tot=              0.0000
 Quadrupole moment (field-independent basis, Debye-Ang):
   XX=            -22.1424   YY=            -22.1424   ZZ=            -43.0428
   XY=             -0.0000   XZ=              0.0000   YZ=             -0.0000

 5\MP4SDQ=-299.9849642\CCSD=-299.971826\CCSD(T)=-300.0257939\RMSD=3.314
 Normal termination of Gaussian 16 at Sat Jan 14 23:55:56 2023.
