 Gaussian 16, Revision A.03,
 Gaussian 16:  ES64L-G16RevA.03 25-Dec-2016

 ---------------------------------------------------------------
 #p ROCCSD(T)/cc-pVTZ Guess=Read SCF=(VeryTight,CDIIS,VShift=10)
 ---------------------------------------------------------------

 ---------
 O2_O2_207
 ---------
 Symbolic Z-matrix:
 Charge = -1 Multiplicity = 6

                         Standard orientation:
 ---------------------------------------------------------------------
 Center     Atomic      Atomic             Coordinates (Angstroms)
 Number     Number       Type             X           Y           Z
 ---------------------------------------------------------------------
      1          8           0        0.000000    0.000000    2.257989
      2          8           0        0.000000    0.000000    3.610369
      3          8           0        0.000000    0.000000   -3.610369
      4          8           0        0.000000    0.000000   -2.257989
 ---------------------------------------------------------------------

 SCF Done:  E(ROHF) =  -298.986154713     A.U. after   11 cycles
 E2 =    -0.1077163357D+01 EUMP2 =    -0.30006331807035D+03
 CCSD(T)
 CCSD(T)= -0.30003405385D+03

 The electronic state is 6-SGG.
 Alpha  occ. eigenvalues --  -20.50485 -20.50484 -20.48009 -20.48008  -1.36421
 Alpha  occ. eigenvalues --   -1.36419  -1.00472  -1.00282  -0.52611  -0.52611
 Alpha  occ. eigenvalues --   -0.52607  -0.52607  -0.51800  -0.51428  -0.32647
 Alpha  occ. eigenvalues --   -0.32647  -0.32639  -0.32639   0.19035
 Alpha virt. eigenvalues --    0.29221   0.83738   0.87351   0.89966   0.89966
 Alpha virt. eigenvalues --    0.90064   0.90064   0.93763   0.96449   0.99233
 Alpha virt. eigenvalues --    0.99233   0.99479   0.99479   1.10347   1.10349

 Mulliken charges and spin densities:
               1          2
     1  O   -0.191229   1.319416
     2  O   -0.308771   1.180584
     3  O   -0.308771   1.180584
     4  O   -0.191229   1.319416
 Sum of Mulliken charges =  -1.00000   5.00000

 Dipole moment (field-independent basis, Debye):
    X=             -0.0000    Y=              0.0000    Z=              0.0000  Tot=              0.0000
 Quadrupole moment (field-independent basis, Debye-Ang):
   XX=            -22.1715   YY=            -22.1715   ZZ=            -73.2905
   XY=             -0.0000   XZ=              0.0000   YZ=             -0.0000

 81\MP4SDQ=-299.9944579\CCSD=-299.9818445\CCSD(T)=-300.0340538\RMSD=1.1
 Normal termination of Gaussian 16 at Sun Jan 15 08:12:50 2023.
