 Gaussian 16, Revision A.03,
 Gaussian 16:  ES64L-G16RevA.03 25-Dec-2016

 ---------------------------------------------------------------
 #p ROCCSD(T)/cc-pVTZ Guess=Read SCF=(VeryTight,CDIIS,VShift=10)
 ---------------------------------------------------------------

 --------
 O2_O2_59
 --------
 Symbolic Z-matrix:
 Charge = -1 Multiplicity = 6

                         Standard orientation:
 ---------------------------------------------------------------------
 Center     Atomic      Atomic             Coordinates (Angstroms)
 Number     Number       Type             X           Y           Z
 ---------------------------------------------------------------------
      1          8           0        0.000000    0.000000    1.210253
      2          8           0        0.000000    0.000000    2.562634
      3          8           0        0.000000    0.000000   -2.562634
      4          8           0        0.000000    0.000000   -1.210253
 ---------------------------------------------------------------------

 SCF Done:  E(ROHF) =  -299.006175851     A.U. after   14 cycles
 E2 =    -0.1077365273D+01 EUMP2 =    -0.30008354112402D+03
 CCSD(T)
 CCSD(T)= -0.30005637297D+03

 The electronic state is 6-SGG.
 Alpha  occ. eigenvalues --  -20.48293 -20.48290 -20.44379 -20.44378  -1.33928
 Alpha  occ. eigenvalues --   -1.33541  -0.98694  -0.96654  -0.51366  -0.50191
 Alpha  occ. eigenvalues --   -0.50191  -0.49505  -0.49505  -0.45750  -0.30254
 Alpha  occ. eigenvalues --   -0.30254  -0.29283  -0.29283   0.16085
 Alpha virt. eigenvalues --    0.39721   0.88359   0.88857   0.88857   0.91592
 Alpha virt. eigenvalues --    0.94072   0.94072   0.97570   0.97986   0.97986
 Alpha virt. eigenvalues --    1.10988   1.10988   1.12186   1.13026   1.52512

 Mulliken charges and spin densities:
               1          2
     1  O   -0.147864   1.325746
     2  O   -0.352136   1.174254
     3  O   -0.352136   1.174254
     4  O   -0.147864   1.325746
 Sum of Mulliken charges =  -1.00000   5.00000

 Dipole moment (field-independent basis, Debye):
    X=             -0.0000    Y=              0.0000    Z=              0.0000  Tot=              0.0000
 Quadrupole moment (field-independent basis, Debye-Ang):
   XX=            -22.1969   YY=            -22.1969   ZZ=            -49.1972
   XY=             -0.0000   XZ=              0.0000   YZ=             -0.0000

 1\MP4SDQ=-300.0174736\CCSD=-300.0035257\CCSD(T)=-300.056373\RMSD=3.485
 Normal termination of Gaussian 16 at Sun Jan 15 01:40:08 2023.
