 Gaussian 16, Revision A.03,
 Gaussian 16:  ES64L-G16RevA.03 25-Dec-2016

 ---------------------------------------------------------------
 #p ROCCSD(T)/cc-pVTZ Guess=Read SCF=(VeryTight,CDIIS,VShift=10)
 ---------------------------------------------------------------

 ---------
 O2_O2_247
 ---------
 Symbolic Z-matrix:
 Charge = -1 Multiplicity = 6

                         Standard orientation:
 ---------------------------------------------------------------------
 Center     Atomic      Atomic             Coordinates (Angstroms)
 Number     Number       Type             X           Y           Z
 ---------------------------------------------------------------------
      1          8           0        0.000000    0.000000    2.541161
      2          8           0        0.000000    0.000000    3.893541
      3          8           0        0.000000    0.000000   -3.893541
      4          8           0        0.000000    0.000000   -2.541161
 ---------------------------------------------------------------------

 SCF Done:  E(ROHF) =  -298.983254811     A.U. after   10 cycles
 E2 =    -0.1078119476D+01 EUMP2 =    -0.30006137428688D+03
 CCSD(T)
 CCSD(T)= -0.30003133834D+03

 The electronic state is 6-SGG.
 Alpha  occ. eigenvalues --  -20.50518 -20.50517 -20.48469 -20.48469  -1.36724
 Alpha  occ. eigenvalues --   -1.36723  -1.00810  -1.00628  -0.52883  -0.52883
 Alpha  occ. eigenvalues --   -0.52882  -0.52882  -0.52160  -0.51916  -0.32969
 Alpha  occ. eigenvalues --   -0.32969  -0.32967  -0.32967   0.19257
 Alpha virt. eigenvalues --    0.27936   0.84779   0.85690   0.89671   0.89671
 Alpha virt. eigenvalues --    0.89689   0.89689   0.94100   0.94794   0.98957
 Alpha virt. eigenvalues --    0.98957   0.99009   0.99009   1.10016   1.10020

 Mulliken charges and spin densities:
               1          2
     1  O   -0.199638   1.308594
     2  O   -0.300362   1.191406
     3  O   -0.300362   1.191406
     4  O   -0.199638   1.308594
 Sum of Mulliken charges =  -1.00000   5.00000

 Dipole moment (field-independent basis, Debye):
    X=             -0.0000    Y=              0.0000    Z=              0.0000  Tot=              0.0000
 Quadrupole moment (field-independent basis, Debye-Ang):
   XX=            -22.1646   YY=            -22.1646   ZZ=            -81.5209
   XY=             -0.0000   XZ=              0.0000   YZ=             -0.0000

 P4SDQ=-299.9914732\CCSD=-299.9790805\CCSD(T)=-300.0313383\RMSD=2.417e-
 Normal termination of Gaussian 16 at Mon Jan 16 04:27:06 2023.
