 Gaussian 16, Revision A.03,
 Gaussian 16:  ES64L-G16RevA.03 25-Dec-2016

 ---------------------------------------------------------------
 #p ROCCSD(T)/cc-pVTZ Guess=Read SCF=(VeryTight,CDIIS,VShift=10)
 ---------------------------------------------------------------

 ---------
 O2_O2_184
 ---------
 Symbolic Z-matrix:
 Charge = -1 Multiplicity = 6

                         Standard orientation:
 ---------------------------------------------------------------------
 Center     Atomic      Atomic             Coordinates (Angstroms)
 Number     Number       Type             X           Y           Z
 ---------------------------------------------------------------------
      1          8           0        0.000000    0.000000    2.095165
      2          8           0        0.000000    0.000000    3.447545
      3          8           0        0.000000    0.000000   -3.447545
      4          8           0        0.000000    0.000000   -2.095165
 ---------------------------------------------------------------------

 SCF Done:  E(ROHF) =  -298.989786218     A.U. after   11 cycles
 E2 =    -0.1076375267D+01 EUMP2 =    -0.30006616148554D+03
 CCSD(T)
 CCSD(T)= -0.30003745086D+03

 The electronic state is 6-SGG.
 Alpha  occ. eigenvalues --  -20.50602 -20.50601 -20.47761 -20.47760  -1.36276
 Alpha  occ. eigenvalues --   -1.36273  -1.00292  -1.00089  -0.52500  -0.52500
 Alpha  occ. eigenvalues --   -0.52491  -0.52491  -0.51577  -0.51068  -0.32492
 Alpha  occ. eigenvalues --   -0.32492  -0.32475  -0.32475   0.18760
 Alpha virt. eigenvalues --    0.30316   0.82106   0.88592   0.90081   0.90081
 Alpha virt. eigenvalues --    0.90324   0.90324   0.93248   0.99005   0.99289
 Alpha virt. eigenvalues --    0.99289   0.99883   0.99883   1.10521   1.10542

 Mulliken charges and spin densities:
               1          2
     1  O   -0.185721   1.328343
     2  O   -0.314279   1.171657
     3  O   -0.314279   1.171657
     4  O   -0.185721   1.328343
 Sum of Mulliken charges =  -1.00000   5.00000

 Dipole moment (field-independent basis, Debye):
    X=             -0.0000    Y=              0.0000    Z=              0.0000  Tot=              0.0000
 Quadrupole moment (field-independent basis, Debye-Ang):
   XX=            -22.1789   YY=            -22.1789   ZZ=            -68.7745
   XY=             -0.0000   XZ=              0.0000   YZ=             -0.0000

 MP4SDQ=-299.9981699\CCSD=-299.9852965\CCSD(T)=-300.0374509\RMSD=7.193e
 Normal termination of Gaussian 16 at Sun Jan 15 07:11:43 2023.
