 Gaussian 16, Revision A.03,
 Gaussian 16:  ES64L-G16RevA.03 25-Dec-2016

 ---------------------------------------------------------------
 #p ROCCSD(T)/cc-pVTZ Guess=Read SCF=(VeryTight,CDIIS,VShift=10)
 ---------------------------------------------------------------

 ---------
 O2_O2_117
 ---------
 Symbolic Z-matrix:
 Charge = -1 Multiplicity = 6

                         Standard orientation:
 ---------------------------------------------------------------------
 Center     Atomic      Atomic             Coordinates (Angstroms)
 Number     Number       Type             X           Y           Z
 ---------------------------------------------------------------------
      1          8           0        0.000000    0.000000    1.620853
      2          8           0        0.000000    0.000000    2.973233
      3          8           0        0.000000    0.000000   -2.973233
      4          8           0        0.000000    0.000000   -1.620853
 ---------------------------------------------------------------------

 SCF Done:  E(ROHF) =  -299.006229995     A.U. after   12 cycles
 E2 =    -0.1073575642D+01 EUMP2 =    -0.30007980563644D+03
 CCSD(T)
 CCSD(T)= -0.30005346664D+03

 The electronic state is 6-SGG.
 Alpha  occ. eigenvalues --  -20.51061 -20.51060 -20.46425 -20.46424  -1.35634
 Alpha  occ. eigenvalues --   -1.35593  -0.99536  -0.99114  -0.52016  -0.52016
 Alpha  occ. eigenvalues --   -0.51915  -0.51915  -0.50876  -0.49247  -0.31752
 Alpha  occ. eigenvalues --   -0.31752  -0.31600  -0.31600   0.17254
 Alpha virt. eigenvalues --    0.35145   0.78701   0.89754   0.89754   0.89864
 Alpha virt. eigenvalues --    0.91850   0.91850   0.92275   0.98538   0.98538
 Alpha virt. eigenvalues --    1.03176   1.03176   1.11139   1.11397   1.21989

 Mulliken charges and spin densities:
               1          2
     1  O   -0.160039   1.373376
     2  O   -0.339961   1.126624
     3  O   -0.339961   1.126624
     4  O   -0.160039   1.373376
 Sum of Mulliken charges =  -1.00000   5.00000

 Dipole moment (field-independent basis, Debye):
    X=             -0.0000    Y=              0.0000    Z=             -0.0000  Tot=              0.0000
 Quadrupole moment (field-independent basis, Debye-Ang):
   XX=            -22.1985   YY=            -22.1985   ZZ=            -56.9514
   XY=             -0.0000   XZ=              0.0000   YZ=             -0.0000

 P4SDQ=-300.0153282\CCSD=-300.0013265\CCSD(T)=-300.0534666\RMSD=1.956e-
 Normal termination of Gaussian 16 at Sun Jan 15 04:13:39 2023.
