 Gaussian 16, Revision A.03,
 Gaussian 16:  ES64L-G16RevA.03 25-Dec-2016

 ---------------------------------------------------------------
 #p ROCCSD(T)/cc-pVTZ Guess=Read SCF=(VeryTight,CDIIS,VShift=10)
 ---------------------------------------------------------------

 ---------
 O2_O2_259
 ---------
 Symbolic Z-matrix:
 Charge = -1 Multiplicity = 6

                         Standard orientation:
 ---------------------------------------------------------------------
 Center     Atomic      Atomic             Coordinates (Angstroms)
 Number     Number       Type             X           Y           Z
 ---------------------------------------------------------------------
      1          8           0        0.000000    0.000000    2.626112
      2          8           0        0.000000    0.000000    3.978492
      3          8           0        0.000000    0.000000   -3.978492
      4          8           0        0.000000    0.000000   -2.626112
 ---------------------------------------------------------------------

 SCF Done:  E(ROHF) =  -298.982885549     A.U. after   10 cycles
 E2 =    -0.1078336295D+01 EUMP2 =    -0.30006122184376D+03
 CCSD(T)
 CCSD(T)= -0.30003098778D+03

 The electronic state is 6-SGG.
 Alpha  occ. eigenvalues --  -20.50557 -20.50557 -20.48610 -20.48610  -1.36819
 Alpha  occ. eigenvalues --   -1.36818  -1.00912  -1.00731  -0.52972  -0.52972
 Alpha  occ. eigenvalues --   -0.52972  -0.52972  -0.52260  -0.52041  -0.33070
 Alpha  occ. eigenvalues --   -0.33070  -0.33070  -0.33070   0.19287
 Alpha virt. eigenvalues --    0.27650   0.84830   0.85393   0.89576   0.89576
 Alpha virt. eigenvalues --    0.89587   0.89587   0.94080   0.94562   0.98861
 Alpha virt. eigenvalues --    0.98861   0.98895   0.98895   1.09919   1.09922

 Mulliken charges and spin densities:
               1          2
     1  O   -0.201955   1.305869
     2  O   -0.298045   1.194131
     3  O   -0.298045   1.194131
     4  O   -0.201955   1.305869
 Sum of Mulliken charges =  -1.00000   5.00000

 Dipole moment (field-independent basis, Debye):
    X=             -0.0000    Y=              0.0000    Z=             -0.0000  Tot=              0.0000
 Quadrupole moment (field-independent basis, Debye-Ang):
   XX=            -22.1636   YY=            -22.1636   ZZ=            -84.1081
   XY=             -0.0000   XZ=              0.0000   YZ=             -0.0000

 P4SDQ=-299.9910835\CCSD=-299.978724\CCSD(T)=-300.0309878\RMSD=6.501e-0
 Normal termination of Gaussian 16 at Mon Jan 16 04:41:03 2023.
