 Gaussian 16, Revision A.03,
 Gaussian 16:  ES64L-G16RevA.03 25-Dec-2016

 ---------------------------------------------------------------
 #p ROCCSD(T)/cc-pVTZ Guess=Read SCF=(VeryTight,CDIIS,VShift=10)
 ---------------------------------------------------------------

 ---------
 O2_O2_168
 ---------
 Symbolic Z-matrix:
 Charge = -1 Multiplicity = 6

                         Standard orientation:
 ---------------------------------------------------------------------
 Center     Atomic      Atomic             Coordinates (Angstroms)
 Number     Number       Type             X           Y           Z
 ---------------------------------------------------------------------
      1          8           0        0.000000    0.000000    1.981897
      2          8           0        0.000000    0.000000    3.334277
      3          8           0        0.000000    0.000000   -3.334277
      4          8           0        0.000000    0.000000   -1.981897
 ---------------------------------------------------------------------

 SCF Done:  E(ROHF) =  -298.993405288     A.U. after   13 cycles
 E2 =    -0.1075692846D+01 EUMP2 =    -0.30006909813406D+03
 CCSD(T)
 CCSD(T)= -0.30004085685D+03

 The electronic state is 6-SGG.
 Alpha  occ. eigenvalues --  -20.50764 -20.50763 -20.47575 -20.47574  -1.36188
 Alpha  occ. eigenvalues --   -1.36181  -1.00170  -0.99950  -0.52446  -0.52446
 Alpha  occ. eigenvalues --   -0.52429  -0.52429  -0.51413  -0.50762  -0.32394
 Alpha  occ. eigenvalues --   -0.32394  -0.32363  -0.32363   0.18477
 Alpha virt. eigenvalues --    0.31287   0.80538   0.89278   0.90112   0.90112
 Alpha virt. eigenvalues --    0.90550   0.90550   0.92854   0.99241   0.99241
 Alpha virt. eigenvalues --    1.00291   1.00291   1.02178   1.10636   1.10681

 Mulliken charges and spin densities:
               1          2
     1  O   -0.181169   1.337107
     2  O   -0.318831   1.162893
     3  O   -0.318831   1.162893
     4  O   -0.181169   1.337107
 Sum of Mulliken charges =  -1.00000   5.00000

 Dipole moment (field-independent basis, Debye):
    X=             -0.0000    Y=              0.0000    Z=             -0.0000  Tot=              0.0000
 Quadrupole moment (field-independent basis, Debye-Ang):
   XX=            -22.1853   YY=            -22.1853   ZZ=            -65.7172
   XY=             -0.0000   XZ=              0.0000   YZ=             -0.0000

 81\MP4SDQ=-300.0018773\CCSD=-299.9887465\CCSD(T)=-300.0408568\RMSD=5.0
 Normal termination of Gaussian 16 at Sun Jan 15 06:28:18 2023.
