 Gaussian 16, Revision A.03,
 Gaussian 16:  ES64L-G16RevA.03 25-Dec-2016

 ---------------------------------------------------------------
 #p ROCCSD(T)/cc-pVTZ Guess=Read SCF=(VeryTight,CDIIS,VShift=10)
 ---------------------------------------------------------------

 ---------
 O2_O2_108
 ---------
 Symbolic Z-matrix:
 Charge = -1 Multiplicity = 6

                         Standard orientation:
 ---------------------------------------------------------------------
 Center     Atomic      Atomic             Coordinates (Angstroms)
 Number     Number       Type             X           Y           Z
 ---------------------------------------------------------------------
      1          8           0        0.000000    0.000000    1.557139
      2          8           0        0.000000    0.000000    2.909519
      3          8           0        0.000000    0.000000   -2.909519
      4          8           0        0.000000    0.000000   -1.557139
 ---------------------------------------------------------------------

 SCF Done:  E(ROHF) =  -299.007527336     A.U. after   14 cycles
 E2 =    -0.1073571202D+01 EUMP2 =    -0.30008109853742D+03
 CCSD(T)
 CCSD(T)= -0.30005496033D+03

 The electronic state is 6-SGG.
 Alpha  occ. eigenvalues --  -20.50891 -20.50889 -20.46104 -20.46103  -1.35432
 Alpha  occ. eigenvalues --   -1.35374  -0.99362  -0.98848  -0.51817  -0.51817
 Alpha  occ. eigenvalues --   -0.51681  -0.51681  -0.50815  -0.48865  -0.31538
 Alpha  occ. eigenvalues --   -0.31538  -0.31337  -0.31337   0.17053
 Alpha virt. eigenvalues --    0.35807   0.79839   0.89590   0.89590   0.89751
 Alpha virt. eigenvalues --    0.92193   0.92193   0.92275   0.98375   0.98375
 Alpha virt. eigenvalues --    1.04070   1.04070   1.11289   1.11605   1.26817

 Mulliken charges and spin densities:
               1          2
     1  O   -0.156254   1.375340
     2  O   -0.343746   1.124660
     3  O   -0.343746   1.124660
     4  O   -0.156254   1.375340
 Sum of Mulliken charges =  -1.00000   5.00000

 Dipole moment (field-independent basis, Debye):
    X=             -0.0000    Y=              0.0000    Z=              0.0000  Tot=              0.0000
 Quadrupole moment (field-independent basis, Debye-Ang):
   XX=            -22.1980   YY=            -22.1980   ZZ=            -55.6404
   XY=             -0.0000   XZ=              0.0000   YZ=             -0.0000

 5\MP4SDQ=-300.0168257\CCSD=-300.0027595\CCSD(T)=-300.0549603\RMSD=1.33
 Normal termination of Gaussian 16 at Sun Jan 15 03:49:14 2023.
