 Gaussian 16, Revision A.03,
 Gaussian 16:  ES64L-G16RevA.03 25-Dec-2016

 ---------------------------------------------------------------
 #p ROCCSD(T)/cc-pVTZ Guess=Read SCF=(VeryTight,CDIIS,VShift=10)
 ---------------------------------------------------------------

 ---------
 O2_O2_215
 ---------
 Symbolic Z-matrix:
 Charge = -1 Multiplicity = 6

                         Standard orientation:
 ---------------------------------------------------------------------
 Center     Atomic      Atomic             Coordinates (Angstroms)
 Number     Number       Type             X           Y           Z
 ---------------------------------------------------------------------
      1          8           0        0.000000    0.000000    2.314623
      2          8           0        0.000000    0.000000    3.667003
      3          8           0        0.000000    0.000000   -3.667003
      4          8           0        0.000000    0.000000   -2.314623
 ---------------------------------------------------------------------

 SCF Done:  E(ROHF) =  -298.985288000     A.U. after   12 cycles
 E2 =    -0.1077390699D+01 EUMP2 =    -0.30006267869886D+03
 CCSD(T)
 CCSD(T)= -0.30003324431D+03

 The electronic state is 6-SGG.
 Alpha  occ. eigenvalues --  -20.50473 -20.50472 -20.48098 -20.48097  -1.36478
 Alpha  occ. eigenvalues --   -1.36476  -1.00538  -1.00350  -0.52659  -0.52659
 Alpha  occ. eigenvalues --   -0.52656  -0.52656  -0.51875  -0.51537  -0.32707
 Alpha  occ. eigenvalues --   -0.32707  -0.32701  -0.32701   0.19101
 Alpha virt. eigenvalues --    0.28910   0.84101   0.86935   0.89913   0.89913
 Alpha virt. eigenvalues --    0.89983   0.89983   0.93892   0.95933   0.99189
 Alpha virt. eigenvalues --    0.99189   0.99369   0.99369   1.10283   1.10283

 Mulliken charges and spin densities:
               1          2
     1  O   -0.192997   1.316937
     2  O   -0.307003   1.183063
     3  O   -0.307003   1.183063
     4  O   -0.192997   1.316937
 Sum of Mulliken charges =  -1.00000   5.00000

 Dipole moment (field-independent basis, Debye):
    X=             -0.0000    Y=              0.0000    Z=             -0.0000  Tot=              0.0000
 Quadrupole moment (field-independent basis, Debye-Ang):
   XX=            -22.1696   YY=            -22.1696   ZZ=            -74.8943
   XY=             -0.0000   XZ=              0.0000   YZ=             -0.0000

 \MP4SDQ=-299.9935709\CCSD=-299.9810207\CCSD(T)=-300.0332443\RMSD=9.934
 Normal termination of Gaussian 16 at Sun Jan 15 08:33:36 2023.
