 Gaussian 16, Revision A.03,
 Gaussian 16:  ES64L-G16RevA.03 25-Dec-2016

 ---------------------------------------------------------------
 #p ROCCSD(T)/cc-pVTZ Guess=Read SCF=(VeryTight,CDIIS,VShift=10)
 ---------------------------------------------------------------

 ---------
 O2_O2_291
 ---------
 Symbolic Z-matrix:
 Charge = -1 Multiplicity = 6

                         Standard orientation:
 ---------------------------------------------------------------------
 Center     Atomic      Atomic             Coordinates (Angstroms)
 Number     Number       Type             X           Y           Z
 ---------------------------------------------------------------------
      1          8           0        0.000000    0.000000    2.852649
      2          8           0        0.000000    0.000000    4.205029
      3          8           0        0.000000    0.000000   -4.205029
      4          8           0        0.000000    0.000000   -2.852649
 ---------------------------------------------------------------------

 SCF Done:  E(ROHF) =  -298.982402553     A.U. after    9 cycles
 E2 =    -0.1078816762D+01 EUMP2 =    -0.30006121931566D+03
 CCSD(T)
 CCSD(T)= -0.30003051902D+03

 The electronic state is 6-SGG.
 Alpha  occ. eigenvalues --  -20.50684 -20.50684 -20.48973 -20.48972  -1.37065
 Alpha  occ. eigenvalues --   -1.37065  -1.01172  -1.00993  -0.53209  -0.53209
 Alpha  occ. eigenvalues --   -0.53208  -0.53208  -0.52510  -0.52338  -0.33333
 Alpha  occ. eigenvalues --   -0.33333  -0.33333  -0.33333   0.19329
 Alpha virt. eigenvalues --    0.27017   0.84734   0.84878   0.89331   0.89331
 Alpha virt. eigenvalues --    0.89334   0.89334   0.93912   0.94141   0.98607
 Alpha virt. eigenvalues --    0.98607   0.98622   0.98622   1.09672   1.09673

 Mulliken charges and spin densities:
               1          2
     1  O   -0.207608   1.299338
     2  O   -0.292392   1.200662
     3  O   -0.292392   1.200662
     4  O   -0.207608   1.299338
 Sum of Mulliken charges =  -1.00000   5.00000

 Dipole moment (field-independent basis, Debye):
    X=             -0.0000    Y=              0.0000    Z=              0.0000  Tot=              0.0000
 Quadrupole moment (field-independent basis, Debye-Ang):
   XX=            -22.1618   YY=            -22.1618   ZZ=            -91.3234
   XY=             -0.0000   XZ=              0.0000   YZ=             -0.0000

 P4SDQ=-299.9905522\CCSD=-299.9782479\CCSD(T)=-300.030519\RMSD=6.830e-0
 Normal termination of Gaussian 16 at Mon Jan 16 05:19:43 2023.
