 Gaussian 16, Revision A.03,
 Gaussian 16:  ES64L-G16RevA.03 25-Dec-2016

 ---------------------------------------------------------------
 #p ROCCSD(T)/cc-pVTZ Guess=Read SCF=(VeryTight,CDIIS,VShift=10)
 ---------------------------------------------------------------

 --------
 O2_O2_96
 --------
 Symbolic Z-matrix:
 Charge = -1 Multiplicity = 6

                         Standard orientation:
 ---------------------------------------------------------------------
 Center     Atomic      Atomic             Coordinates (Angstroms)
 Number     Number       Type             X           Y           Z
 ---------------------------------------------------------------------
      1          8           0        0.000000    0.000000    1.472188
      2          8           0        0.000000    0.000000    2.824568
      3          8           0        0.000000    0.000000   -2.824568
      4          8           0        0.000000    0.000000   -1.472188
 ---------------------------------------------------------------------

 SCF Done:  E(ROHF) =  -299.008538300     A.U. after   14 cycles
 E2 =    -0.1073902846D+01 EUMP2 =    -0.30008244114636D+03
 CCSD(T)
 CCSD(T)= -0.30005638137D+03

 The electronic state is 6-SGG.
 Alpha  occ. eigenvalues --  -20.50508 -20.50507 -20.45653 -20.45652  -1.35110
 Alpha  occ. eigenvalues --   -1.35019  -0.99122  -0.98431  -0.51486  -0.51486
 Alpha  occ. eigenvalues --   -0.51280  -0.51280  -0.50785  -0.48289  -0.31219
 Alpha  occ. eigenvalues --   -0.31219  -0.30927  -0.30927   0.16808
 Alpha virt. eigenvalues --    0.36658   0.82331   0.89326   0.89326   0.89510
 Alpha virt. eigenvalues --    0.92263   0.92677   0.92677   0.98183   0.98183
 Alpha virt. eigenvalues --    1.05473   1.05473   1.11509   1.11918   1.33545

 Mulliken charges and spin densities:
               1          2
     1  O   -0.151983   1.372969
     2  O   -0.348017   1.127031
     3  O   -0.348017   1.127031
     4  O   -0.151983   1.372969
 Sum of Mulliken charges =  -1.00000   5.00000

 Dipole moment (field-independent basis, Debye):
    X=             -0.0000    Y=              0.0000    Z=              0.0000  Tot=              0.0000
 Quadrupole moment (field-independent basis, Debye-Ang):
   XX=            -22.1970   YY=            -22.1970   ZZ=            -53.9908
   XY=             -0.0000   XZ=              0.0000   YZ=             -0.0000

 1\MP4SDQ=-300.018163\CCSD=-300.0040707\CCSD(T)=-300.0563814\RMSD=3.903
 Normal termination of Gaussian 16 at Sun Jan 15 03:19:01 2023.
