 Gaussian 16, Revision A.03,
 Gaussian 16:  ES64L-G16RevA.03 25-Dec-2016

 ---------------------------------------------------------------
 #p ROCCSD(T)/cc-pVTZ Guess=Read SCF=(VeryTight,CDIIS,VShift=10)
 ---------------------------------------------------------------

 ---------
 O2_O2_121
 ---------
 Symbolic Z-matrix:
 Charge = -1 Multiplicity = 6

                         Standard orientation:
 ---------------------------------------------------------------------
 Center     Atomic      Atomic             Coordinates (Angstroms)
 Number     Number       Type             X           Y           Z
 ---------------------------------------------------------------------
      1          8           0        0.000000    0.000000    1.649170
      2          8           0        0.000000    0.000000    3.001550
      3          8           0        0.000000    0.000000   -3.001550
      4          8           0        0.000000    0.000000   -1.649170
 ---------------------------------------------------------------------

 SCF Done:  E(ROHF) =  -299.005505180     A.U. after   11 cycles
 E2 =    -0.1073640431D+01 EUMP2 =    -0.30007914561111D+03
 CCSD(T)
 CCSD(T)= -0.30005268511D+03

 The electronic state is 6-SGG.
 Alpha  occ. eigenvalues --  -20.51105 -20.51104 -20.46558 -20.46558  -1.35712
 Alpha  occ. eigenvalues --   -1.35677  -0.99609  -0.99219  -0.52089  -0.52089
 Alpha  occ. eigenvalues --   -0.52001  -0.52001  -0.50911  -0.49404  -0.31838
 Alpha  occ. eigenvalues --   -0.31838  -0.31703  -0.31703   0.17349
 Alpha virt. eigenvalues --    0.34843   0.78382   0.89815   0.89815   0.89895
 Alpha virt. eigenvalues --    0.91706   0.91706   0.92279   0.98611   0.98612
 Alpha virt. eigenvalues --    1.02822   1.02822   1.11077   1.11314   1.19942

 Mulliken charges and spin densities:
               1          2
     1  O   -0.161829   1.371614
     2  O   -0.338171   1.128386
     3  O   -0.338171   1.128386
     4  O   -0.161829   1.371614
 Sum of Mulliken charges =  -1.00000   5.00000

 Dipole moment (field-independent basis, Debye):
    X=             -0.0000    Y=              0.0000    Z=              0.0000  Tot=              0.0000
 Quadrupole moment (field-independent basis, Debye-Ang):
   XX=            -22.1984   YY=            -22.1984   ZZ=            -57.5578
   XY=             -0.0000   XZ=              0.0000   YZ=             -0.0000

 56\MP4SDQ=-300.0145258\CCSD=-300.0005658\CCSD(T)=-300.0526851\RMSD=5.3
 Normal termination of Gaussian 16 at Sun Jan 15 04:23:29 2023.
