 Gaussian 16, Revision A.03,
 Gaussian 16:  ES64L-G16RevA.03 25-Dec-2016

 ---------------------------------------------------------------
 #p ROCCSD(T)/cc-pVTZ Guess=Read SCF=(VeryTight,CDIIS,VShift=10)
 ---------------------------------------------------------------

 ---------
 O2_O2_220
 ---------
 Symbolic Z-matrix:
 Charge = -1 Multiplicity = 6

                         Standard orientation:
 ---------------------------------------------------------------------
 Center     Atomic      Atomic             Coordinates (Angstroms)
 Number     Number       Type             X           Y           Z
 ---------------------------------------------------------------------
      1          8           0        0.000000    0.000000    2.350020
      2          8           0        0.000000    0.000000    3.702400
      3          8           0        0.000000    0.000000   -3.702400
      4          8           0        0.000000    0.000000   -2.350020
 ---------------------------------------------------------------------

 SCF Done:  E(ROHF) =  -298.984833069     A.U. after   11 cycles
 E2 =    -0.1077522344D+01 EUMP2 =    -0.30006235541354D+03
 CCSD(T)
 CCSD(T)= -0.30003281917D+03

 The electronic state is 6-SGG.
 Alpha  occ. eigenvalues --  -20.50471 -20.50470 -20.48154 -20.48154  -1.36514
 Alpha  occ. eigenvalues --   -1.36513  -1.00579  -1.00393  -0.52691  -0.52691
 Alpha  occ. eigenvalues --   -0.52689  -0.52689  -0.51921  -0.51601  -0.32746
 Alpha  occ. eigenvalues --   -0.32746  -0.32741  -0.32741   0.19135
 Alpha virt. eigenvalues --    0.28732   0.84281   0.86693   0.89878   0.89878
 Alpha virt. eigenvalues --    0.89934   0.89934   0.93956   0.95674   0.99158
 Alpha virt. eigenvalues --    0.99158   0.99305   0.99305   1.10241   1.10243

 Mulliken charges and spin densities:
               1          2
     1  O   -0.194078   1.315491
     2  O   -0.305922   1.184509
     3  O   -0.305922   1.184509
     4  O   -0.194078   1.315491
 Sum of Mulliken charges =  -1.00000   5.00000

 Dipole moment (field-independent basis, Debye):
    X=             -0.0000    Y=              0.0000    Z=             -0.0000  Tot=              0.0000
 Quadrupole moment (field-independent basis, Debye-Ang):
   XX=            -22.1686   YY=            -22.1686   ZZ=            -75.9064
   XY=             -0.0000   XZ=              0.0000   YZ=             -0.0000

 54\MP4SDQ=-299.9931044\CCSD=-299.9805879\CCSD(T)=-300.0328192\RMSD=6.3
 Normal termination of Gaussian 16 at Sun Jan 15 08:46:17 2023.
