 Gaussian 16, Revision A.03,
 Gaussian 16:  ES64L-G16RevA.03 25-Dec-2016

 ---------------------------------------------------------------
 #p ROCCSD(T)/cc-pVTZ Guess=Read SCF=(VeryTight,CDIIS,VShift=10)
 ---------------------------------------------------------------

 ---------
 O2_O2_109
 ---------
 Symbolic Z-matrix:
 Charge = -1 Multiplicity = 6

                         Standard orientation:
 ---------------------------------------------------------------------
 Center     Atomic      Atomic             Coordinates (Angstroms)
 Number     Number       Type             X           Y           Z
 ---------------------------------------------------------------------
      1          8           0        0.000000    0.000000    1.564218
      2          8           0        0.000000    0.000000    2.916598
      3          8           0        0.000000    0.000000   -2.916598
      4          8           0        0.000000    0.000000   -1.564218
 ---------------------------------------------------------------------

 SCF Done:  E(ROHF) =  -299.007406340     A.U. after   14 cycles
 E2 =    -0.1073561320D+01 EUMP2 =    -0.30008096765924D+03
 CCSD(T)
 CCSD(T)= -0.30005481276D+03

 The electronic state is 6-SGG.
 Alpha  occ. eigenvalues --  -20.50915 -20.50913 -20.46141 -20.46140  -1.35456
 Alpha  occ. eigenvalues --   -1.35401  -0.99382  -0.98879  -0.51842  -0.51842
 Alpha  occ. eigenvalues --   -0.51710  -0.51710  -0.50820  -0.48909  -0.31563
 Alpha  occ. eigenvalues --   -0.31563  -0.31368  -0.31368   0.17075
 Alpha virt. eigenvalues --    0.35734   0.79683   0.89610   0.89610   0.89767
 Alpha virt. eigenvalues --    0.92154   0.92154   0.92275   0.98393   0.98393
 Alpha virt. eigenvalues --    1.03964   1.03964   1.11271   1.11581   1.26268

 Mulliken charges and spin densities:
               1          2
     1  O   -0.156654   1.375272
     2  O   -0.343346   1.124728
     3  O   -0.343346   1.124728
     4  O   -0.156654   1.375272
 Sum of Mulliken charges =  -1.00000   5.00000

 Dipole moment (field-independent basis, Debye):
    X=             -0.0000    Y=              0.0000    Z=             -0.0000  Tot=              0.0000
 Quadrupole moment (field-independent basis, Debye-Ang):
   XX=            -22.1981   YY=            -22.1981   ZZ=            -55.7826
   XY=             -0.0000   XZ=              0.0000   YZ=             -0.0000

 77\MP4SDQ=-300.0166806\CCSD=-300.0026196\CCSD(T)=-300.0548128\RMSD=1.0
 Normal termination of Gaussian 16 at Sun Jan 15 03:51:48 2023.
