 Gaussian 16, Revision A.03,
 Gaussian 16:  ES64L-G16RevA.03 25-Dec-2016

 ---------------------------------------------------------------
 #p ROCCSD(T)/cc-pVTZ Guess=Read SCF=(VeryTight,CDIIS,VShift=10)
 ---------------------------------------------------------------

 ---------
 O2_O2_193
 ---------
 Symbolic Z-matrix:
 Charge = -1 Multiplicity = 6

                         Standard orientation:
 ---------------------------------------------------------------------
 Center     Atomic      Atomic             Coordinates (Angstroms)
 Number     Number       Type             X           Y           Z
 ---------------------------------------------------------------------
      1          8           0        0.000000    0.000000    2.158879
      2          8           0        0.000000    0.000000    3.511259
      3          8           0        0.000000    0.000000   -3.511259
      4          8           0        0.000000    0.000000   -2.158879
 ---------------------------------------------------------------------

 SCF Done:  E(ROHF) =  -298.988147080     A.U. after   12 cycles
 E2 =    -0.1076709434D+01 EUMP2 =    -0.30006485651426D+03
 CCSD(T)
 CCSD(T)= -0.30003591564D+03

 The electronic state is 6-SGG.
 Alpha  occ. eigenvalues --  -20.50540 -20.50539 -20.47857 -20.47857  -1.36330
 Alpha  occ. eigenvalues --   -1.36327  -1.00361  -1.00165  -0.52538  -0.52538
 Alpha  occ. eigenvalues --   -0.52531  -0.52531  -0.51666  -0.51218  -0.32550
 Alpha  occ. eigenvalues --   -0.32550  -0.32537  -0.32537   0.18885
 Alpha virt. eigenvalues --    0.29848   0.82851   0.88119   0.90044   0.90044
 Alpha virt. eigenvalues --    0.90216   0.90216   0.93468   0.97770   0.99282
 Alpha virt. eigenvalues --    0.99282   0.99706   0.99706   1.10455   1.10466

 Mulliken charges and spin densities:
               1          2
     1  O   -0.187976   1.324446
     2  O   -0.312024   1.175554
     3  O   -0.312024   1.175554
     4  O   -0.187976   1.324446
 Sum of Mulliken charges =  -1.00000   5.00000

 Dipole moment (field-independent basis, Debye):
    X=             -0.0000    Y=             -0.0000    Z=              0.0000  Tot=              0.0000
 Quadrupole moment (field-independent basis, Debye-Ang):
   XX=            -22.1757   YY=            -22.1757   ZZ=            -70.5256
   XY=             -0.0000   XZ=              0.0000   YZ=             -0.0000

 65\MP4SDQ=-299.9964942\CCSD=-299.9837376\CCSD(T)=-300.0359156\RMSD=7.2
 Normal termination of Gaussian 16 at Sun Jan 15 07:34:51 2023.
