 Gaussian 16, Revision A.03,
 Gaussian 16:  ES64L-G16RevA.03 25-Dec-2016

 ---------------------------------------------------------------
 #p ROCCSD(T)/cc-pVTZ Guess=Read SCF=(VeryTight,CDIIS,VShift=10)
 ---------------------------------------------------------------

 ---------
 O2_O2_148
 ---------
 Symbolic Z-matrix:
 Charge = -1 Multiplicity = 6

                         Standard orientation:
 ---------------------------------------------------------------------
 Center     Atomic      Atomic             Coordinates (Angstroms)
 Number     Number       Type             X           Y           Z
 ---------------------------------------------------------------------
      1          8           0        0.000000    0.000000    1.840311
      2          8           0        0.000000    0.000000    3.192691
      3          8           0        0.000000    0.000000   -3.192691
      4          8           0        0.000000    0.000000   -1.840311
 ---------------------------------------------------------------------

 SCF Done:  E(ROHF) =  -298.998828996     A.U. after   14 cycles
 E2 =    -0.1074714968D+01 EUMP2 =    -0.30007354396355D+03
 CCSD(T)
 CCSD(T)= -0.30004602721D+03

 The electronic state is 6-SGG.
 Alpha  occ. eigenvalues --  -20.51013 -20.51012 -20.47262 -20.47262  -1.36058
 Alpha  occ. eigenvalues --   -1.36045  -0.99990  -0.99729  -0.52370  -0.52370
 Alpha  occ. eigenvalues --   -0.52335  -0.52335  -0.51196  -0.50284  -0.32240
 Alpha  occ. eigenvalues --   -0.32240  -0.32181  -0.32181   0.18025
 Alpha virt. eigenvalues --    0.32730   0.78687   0.89776   0.90069   0.90069
 Alpha virt. eigenvalues --    0.90928   0.90928   0.92473   0.99053   0.99053
 Alpha virt. eigenvalues --    1.01057   1.01057   1.08172   1.10806   1.10887

 Mulliken charges and spin densities:
               1          2
     1  O   -0.173950   1.351801
     2  O   -0.326050   1.148199
     3  O   -0.326050   1.148199
     4  O   -0.173950   1.351801
 Sum of Mulliken charges =  -1.00000   5.00000

 Dipole moment (field-independent basis, Debye):
    X=             -0.0000    Y=              0.0000    Z=              0.0000  Tot=              0.0000
 Quadrupole moment (field-independent basis, Debye-Ang):
   XX=            -22.1932   YY=            -22.1932   ZZ=            -62.0446
   XY=             -0.0000   XZ=              0.0000   YZ=             -0.0000

 P4SDQ=-300.0074697\CCSD=-299.9939548\CCSD(T)=-300.0460272\RMSD=2.013e-
 Normal termination of Gaussian 16 at Sun Jan 15 05:33:13 2023.
