 Gaussian 16, Revision A.03,
 Gaussian 16:  ES64L-G16RevA.03 25-Dec-2016

 ---------------------------------------------------------------
 #p ROCCSD(T)/cc-pVTZ Guess=Read SCF=(VeryTight,CDIIS,VShift=10)
 ---------------------------------------------------------------

 ---------
 O2_O2_140
 ---------
 Symbolic Z-matrix:
 Charge = -1 Multiplicity = 6

                         Standard orientation:
 ---------------------------------------------------------------------
 Center     Atomic      Atomic             Coordinates (Angstroms)
 Number     Number       Type             X           Y           Z
 ---------------------------------------------------------------------
      1          8           0        0.000000    0.000000    1.783676
      2          8           0        0.000000    0.000000    3.136056
      3          8           0        0.000000    0.000000   -3.136056
      4          8           0        0.000000    0.000000   -1.783676
 ---------------------------------------------------------------------

 SCF Done:  E(ROHF) =  -299.001030685     A.U. after   14 cycles
 E2 =    -0.1074325775D+01 EUMP2 =    -0.30007535646007D+03
 CCSD(T)
 CCSD(T)= -0.30004816504D+03

 The electronic state is 6-SGG.
 Alpha  occ. eigenvalues --  -20.51093 -20.51092 -20.47092 -20.47092  -1.35984
 Alpha  occ. eigenvalues --   -1.35966  -0.99897  -0.99610  -0.52319  -0.52319
 Alpha  occ. eigenvalues --   -0.52273  -0.52273  -0.51108  -0.50054  -0.32151
 Alpha  occ. eigenvalues --   -0.32151  -0.32075  -0.32075   0.17824
 Alpha virt. eigenvalues --    0.33355   0.78224   0.89872   0.90021   0.90021
 Alpha virt. eigenvalues --    0.91122   0.91122   0.92377   0.98939   0.98939
 Alpha virt. eigenvalues --    1.01477   1.01477   1.10728   1.10991   1.11385

 Mulliken charges and spin densities:
               1          2
     1  O   -0.170531   1.358354
     2  O   -0.329469   1.141646
     3  O   -0.329469   1.141646
     4  O   -0.170531   1.358354
 Sum of Mulliken charges =  -1.00000   5.00000

 Dipole moment (field-independent basis, Debye):
    X=             -0.0000    Y=              0.0000    Z=              0.0000  Tot=              0.0000
 Quadrupole moment (field-independent basis, Debye-Ang):
   XX=            -22.1957   YY=            -22.1957   ZZ=            -60.6476
   XY=             -0.0000   XZ=              0.0000   YZ=             -0.0000

 65\MP4SDQ=-300.009762\CCSD=-299.996094\CCSD(T)=-300.048165\RMSD=9.894e
 Normal termination of Gaussian 16 at Sun Jan 15 05:13:13 2023.
