 Gaussian 16, Revision A.03,
 Gaussian 16:  ES64L-G16RevA.03 25-Dec-2016

 ---------------------------------------------------------------
 #p ROCCSD(T)/cc-pVTZ Guess=Read SCF=(VeryTight,CDIIS,VShift=10)
 ---------------------------------------------------------------

 --------
 O2_O2_27
 --------
 Symbolic Z-matrix:
 Charge = -1 Multiplicity = 6

                         Standard orientation:
 ---------------------------------------------------------------------
 Center     Atomic      Atomic             Coordinates (Angstroms)
 Number     Number       Type             X           Y           Z
 ---------------------------------------------------------------------
      1          8           0        0.000000    0.000000    0.983716
      2          8           0        0.000000    0.000000    2.336097
      3          8           0        0.000000    0.000000   -2.336097
      4          8           0        0.000000    0.000000   -0.983716
 ---------------------------------------------------------------------

 SCF Done:  E(ROHF) =  -298.984397274     A.U. after   11 cycles
 E2 =    -0.1080624537D+01 EUMP2 =    -0.30006502181098D+03
 CCSD(T)
 CCSD(T)= -0.30003869627D+03

 The electronic state is 6-SGG.
 Alpha  occ. eigenvalues --  -20.44377 -20.44371 -20.43781 -20.43780  -1.32898
 Alpha  occ. eigenvalues --   -1.31613  -0.99721  -0.93813  -0.53292  -0.49005
 Alpha  occ. eigenvalues --   -0.49005  -0.47314  -0.47314  -0.41306  -0.29807
 Alpha  occ. eigenvalues --   -0.29807  -0.26722  -0.26722   0.15089
 Alpha virt. eigenvalues --    0.45231   0.86768   0.89806   0.91073   0.91073
 Alpha virt. eigenvalues --    0.94849   0.94849   0.98699   0.98699   1.12248
 Alpha virt. eigenvalues --    1.12606   1.16326   1.16326   1.18708   1.64290

 Mulliken charges and spin densities:
               1          2
     1  O   -0.174231   1.205199
     2  O   -0.325769   1.294801
     3  O   -0.325769   1.294801
     4  O   -0.174231   1.205199
 Sum of Mulliken charges =  -1.00000   5.00000

 Dipole moment (field-independent basis, Debye):
    X=             -0.0000    Y=              0.0000    Z=             -0.0000  Tot=              0.0000
 Quadrupole moment (field-independent basis, Debye-Ang):
   XX=            -22.1674   YY=            -22.1674   ZZ=            -44.4468
   XY=             -0.0000   XZ=              0.0000   YZ=             -0.0000

 8\MP4SDQ=-299.9985624\CCSD=-299.9850009\CCSD(T)=-300.0386963\RMSD=6.11
 Normal termination of Gaussian 16 at Sun Jan 15 00:18:11 2023.
