 Gaussian 16, Revision A.03,
 Gaussian 16:  ES64L-G16RevA.03 25-Dec-2016

 ---------------------------------------------------------------
 #p ROCCSD(T)/cc-pVTZ Guess=Read SCF=(VeryTight,CDIIS,VShift=10)
 ---------------------------------------------------------------

 ---------
 O2_O2_130
 ---------
 Symbolic Z-matrix:
 Charge = -1 Multiplicity = 6

                         Standard orientation:
 ---------------------------------------------------------------------
 Center     Atomic      Atomic             Coordinates (Angstroms)
 Number     Number       Type             X           Y           Z
 ---------------------------------------------------------------------
      1          8           0        0.000000    0.000000    1.712883
      2          8           0        0.000000    0.000000    3.065264
      3          8           0        0.000000    0.000000   -3.065264
      4          8           0        0.000000    0.000000   -1.712883
 ---------------------------------------------------------------------

 SCF Done:  E(ROHF) =  -299.003570455     A.U. after   12 cycles
 E2 =    -0.1073902582D+01 EUMP2 =    -0.30007747303673D+03
 CCSD(T)
 CCSD(T)= -0.30005068683D+03

 The electronic state is 6-SGG.
 Alpha  occ. eigenvalues --  -20.51140 -20.51138 -20.46834 -20.46833  -1.35860
 Alpha  occ. eigenvalues --   -1.35835  -0.99758  -0.99425  -0.52220  -0.52220
 Alpha  occ. eigenvalues --   -0.52156  -0.52156  -0.50999  -0.49731  -0.32005
 Alpha  occ. eigenvalues --   -0.32005  -0.31902  -0.31902   0.17570
 Alpha virt. eigenvalues --    0.34145   0.78050   0.89919   0.89930   0.89930
 Alpha virt. eigenvalues --    0.91408   0.91408   0.92306   0.98774   0.98774
 Alpha virt. eigenvalues --    1.02119   1.02119   1.10950   1.11146   1.15606

 Mulliken charges and spin densities:
               1          2
     1  O   -0.165976   1.366083
     2  O   -0.334024   1.133917
     3  O   -0.334024   1.133917
     4  O   -0.165976   1.366083
 Sum of Mulliken charges =  -1.00000   5.00000

 Dipole moment (field-independent basis, Debye):
    X=             -0.0000    Y=              0.0000    Z=              0.0000  Tot=              0.0000
 Quadrupole moment (field-independent basis, Debye-Ang):
   XX=            -22.1977   YY=            -22.1977   ZZ=            -58.9786
   XY=             -0.0000   XZ=              0.0000   YZ=             -0.0000

 MP4SDQ=-300.0124391\CCSD=-299.9986003\CCSD(T)=-300.0506868\RMSD=8.653e
 Normal termination of Gaussian 16 at Sun Jan 15 04:46:07 2023.
