 Gaussian 16, Revision A.03,
 Gaussian 16:  ES64L-G16RevA.03 25-Dec-2016

 ---------------------------------------------------------------
 #p ROCCSD(T)/cc-pVTZ Guess=Read SCF=(VeryTight,CDIIS,VShift=10)
 ---------------------------------------------------------------

 ---------
 O2_O2_172
 ---------
 Symbolic Z-matrix:
 Charge = -1 Multiplicity = 6

                         Standard orientation:
 ---------------------------------------------------------------------
 Center     Atomic      Atomic             Coordinates (Angstroms)
 Number     Number       Type             X           Y           Z
 ---------------------------------------------------------------------
      1          8           0        0.000000    0.000000    2.010214
      2          8           0        0.000000    0.000000    3.362594
      3          8           0        0.000000    0.000000   -3.362594
      4          8           0        0.000000    0.000000   -2.010214
 ---------------------------------------------------------------------

 SCF Done:  E(ROHF) =  -298.992421265     A.U. after   13 cycles
 E2 =    -0.1075873933D+01 EUMP2 =    -0.30006829519809D+03
 CCSD(T)
 CCSD(T)= -0.30003992814D+03

 The electronic state is 6-SGG.
 Alpha  occ. eigenvalues --  -20.50717 -20.50716 -20.47624 -20.47624  -1.36210
 Alpha  occ. eigenvalues --   -1.36204  -1.00201  -0.99986  -0.52458  -0.52458
 Alpha  occ. eigenvalues --   -0.52444  -0.52444  -0.51455  -0.50844  -0.32419
 Alpha  occ. eigenvalues --   -0.32419  -0.32392  -0.32392   0.18555
 Alpha virt. eigenvalues --    0.31027   0.80947   0.89130   0.90109   0.90109
 Alpha virt. eigenvalues --    0.90488   0.90488   0.92949   0.99261   0.99261
 Alpha virt. eigenvalues --    1.00175   1.00175   1.01255   1.10607   1.10645

 Mulliken charges and spin densities:
               1          2
     1  O   -0.182391   1.334664
     2  O   -0.317609   1.165336
     3  O   -0.317609   1.165336
     4  O   -0.182391   1.334664
 Sum of Mulliken charges =  -1.00000   5.00000

 Dipole moment (field-independent basis, Debye):
    X=             -0.0000    Y=              0.0000    Z=             -0.0000  Tot=              0.0000
 Quadrupole moment (field-independent basis, Debye-Ang):
   XX=            -22.1837   YY=            -22.1837   ZZ=            -66.4739
   XY=             -0.0000   XZ=              0.0000   YZ=             -0.0000

 52\MP4SDQ=-300.0008679\CCSD=-299.9878071\CCSD(T)=-300.0399281\RMSD=5.4
 Normal termination of Gaussian 16 at Sun Jan 15 06:38:12 2023.
