 Gaussian 16, Revision A.03,
 Gaussian 16:  ES64L-G16RevA.03 25-Dec-2016

 ---------------------------------------------------------------
 #p ROCCSD(T)/cc-pVTZ Guess=Read SCF=(VeryTight,CDIIS,VShift=10)
 ---------------------------------------------------------------

 ---------
 O2_O2_125
 ---------
 Symbolic Z-matrix:
 Charge = -1 Multiplicity = 6

                         Standard orientation:
 ---------------------------------------------------------------------
 Center     Atomic      Atomic             Coordinates (Angstroms)
 Number     Number       Type             X           Y           Z
 ---------------------------------------------------------------------
      1          8           0        0.000000    0.000000    1.677487
      2          8           0        0.000000    0.000000    3.029867
      3          8           0        0.000000    0.000000   -3.029867
      4          8           0        0.000000    0.000000   -1.677487
 ---------------------------------------------------------------------

 SCF Done:  E(ROHF) =  -299.004694323     A.U. after   14 cycles
 E2 =    -0.1073739192D+01 EUMP2 =    -0.30007843351528D+03
 CCSD(T)
 CCSD(T)= -0.30005183551D+03

 The electronic state is 6-SGG.
 Alpha  occ. eigenvalues --  -20.51131 -20.51130 -20.46685 -20.46685  -1.35783
 Alpha  occ. eigenvalues --   -1.35752  -0.99678  -0.99315  -0.52153  -0.52153
 Alpha  occ. eigenvalues --   -0.52076  -0.52076  -0.50949  -0.49554  -0.31917
 Alpha  occ. eigenvalues --   -0.31917  -0.31797  -0.31797   0.17446
 Alpha virt. eigenvalues --    0.34535   0.78171   0.89870   0.89870   0.89913
 Alpha virt. eigenvalues --    0.91569   0.91569   0.92287   0.98685   0.98685
 Alpha virt. eigenvalues --    1.02494   1.02494   1.11019   1.11236   1.17966

 Mulliken charges and spin densities:
               1          2
     1  O   -0.163662   1.369387
     2  O   -0.336338   1.130613
     3  O   -0.336338   1.130613
     4  O   -0.163662   1.369387
 Sum of Mulliken charges =  -1.00000   5.00000

 Dipole moment (field-independent basis, Debye):
    X=             -0.0000    Y=              0.0000    Z=              0.0000  Tot=              0.0000
 Quadrupole moment (field-independent basis, Debye-Ang):
   XX=            -22.1982   YY=            -22.1982   ZZ=            -58.1795
   XY=             -0.0000   XZ=              0.0000   YZ=             -0.0000

 35\MP4SDQ=-300.0136437\CCSD=-299.9997331\CCSD(T)=-300.0518355\RMSD=1.0
 Normal termination of Gaussian 16 at Sun Jan 15 04:33:37 2023.
