 Gaussian 16, Revision A.03,
 Gaussian 16:  ES64L-G16RevA.03 25-Dec-2016

 ---------------------------------------------------------------
 #p ROCCSD(T)/cc-pVTZ Guess=Read SCF=(VeryTight,CDIIS,VShift=10)
 ---------------------------------------------------------------

 ---------
 O2_O2_186
 ---------
 Symbolic Z-matrix:
 Charge = -1 Multiplicity = 6

                         Standard orientation:
 ---------------------------------------------------------------------
 Center     Atomic      Atomic             Coordinates (Angstroms)
 Number     Number       Type             X           Y           Z
 ---------------------------------------------------------------------
      1          8           0        0.000000    0.000000    2.109323
      2          8           0        0.000000    0.000000    3.461704
      3          8           0        0.000000    0.000000   -3.461704
      4          8           0        0.000000    0.000000   -2.109323
 ---------------------------------------------------------------------

 SCF Done:  E(ROHF) =  -298.989396688     A.U. after   11 cycles
 E2 =    -0.1076452644D+01 EUMP2 =    -0.30006584933131D+03
 CCSD(T)
 CCSD(T)= -0.30003708567D+03

 The electronic state is 6-SGG.
 Alpha  occ. eigenvalues --  -20.50586 -20.50585 -20.47782 -20.47782  -1.36288
 Alpha  occ. eigenvalues --   -1.36284  -1.00307  -1.00106  -0.52508  -0.52508
 Alpha  occ. eigenvalues --   -0.52499  -0.52499  -0.51597  -0.51103  -0.32505
 Alpha  occ. eigenvalues --   -0.32505  -0.32488  -0.32488   0.18789
 Alpha virt. eigenvalues --    0.30208   0.82283   0.88491   0.90074   0.90074
 Alpha virt. eigenvalues --    0.90299   0.90299   0.93298   0.98699   0.99289
 Alpha virt. eigenvalues --    0.99289   0.99841   0.99841   1.10507   1.10525

 Mulliken charges and spin densities:
               1          2
     1  O   -0.186238   1.327420
     2  O   -0.313762   1.172580
     3  O   -0.313762   1.172580
     4  O   -0.186238   1.327420
 Sum of Mulliken charges =  -1.00000   5.00000

 Dipole moment (field-independent basis, Debye):
    X=             -0.0000    Y=              0.0000    Z=              0.0000  Tot=              0.0000
 Quadrupole moment (field-independent basis, Debye-Ang):
   XX=            -22.1781   YY=            -22.1781   ZZ=            -69.1618
   XY=             -0.0000   XZ=              0.0000   YZ=             -0.0000

 93\MP4SDQ=-299.9977715\CCSD=-299.9849259\CCSD(T)=-300.0370857\RMSD=4.5
 Normal termination of Gaussian 16 at Sun Jan 15 07:16:52 2023.
