 Gaussian 16, Revision A.03,
 Gaussian 16:  ES64L-G16RevA.03 25-Dec-2016

 ---------------------------------------------------------------
 #p ROCCSD(T)/cc-pVTZ Guess=Read SCF=(VeryTight,CDIIS,VShift=10)
 ---------------------------------------------------------------

 --------
 O2_O2_17
 --------
 Symbolic Z-matrix:
 Charge = -1 Multiplicity = 6

                         Standard orientation:
 ---------------------------------------------------------------------
 Center     Atomic      Atomic             Coordinates (Angstroms)
 Number     Number       Type             X           Y           Z
 ---------------------------------------------------------------------
      1          8           0        0.000000    0.000000    0.912923
      2          8           0        0.000000    0.000000    2.265304
      3          8           0        0.000000    0.000000   -2.265304
      4          8           0        0.000000    0.000000   -0.912923
 ---------------------------------------------------------------------

 SCF Done:  E(ROHF) =  -298.965932041     A.U. after   13 cycles
 E2 =    -0.1077637138D+01 EUMP2 =    -0.30004356917824D+03
 CCSD(T)
 CCSD(T)= -0.30002157175D+03

 The electronic state is 6-SGG.
 Alpha  occ. eigenvalues --  -20.43688 -20.43687 -20.42401 -20.42393  -1.32645
 Alpha  occ. eigenvalues --   -1.30824  -1.00694  -0.92364  -0.54267  -0.48720
 Alpha  occ. eigenvalues --   -0.48720  -0.46612  -0.46612  -0.39007  -0.29799
 Alpha  occ. eigenvalues --   -0.29799  -0.25231  -0.25231   0.14514
 Alpha virt. eigenvalues --    0.48500   0.86088   0.89065   0.92313   0.92313
 Alpha virt. eigenvalues --    0.94974   0.94974   0.99474   0.99474   1.12646
 Alpha virt. eigenvalues --    1.12648   1.18051   1.18051   1.23566   1.66537

 Mulliken charges and spin densities:
               1          2
     1  O   -0.195827   1.137729
     2  O   -0.304173   1.362271
     3  O   -0.304173   1.362271
     4  O   -0.195827   1.137729
 Sum of Mulliken charges =  -1.00000   5.00000

 Dipole moment (field-independent basis, Debye):
    X=             -0.0000    Y=              0.0000    Z=              0.0000  Tot=              0.0000
 Quadrupole moment (field-independent basis, Debye-Ang):
   XX=            -22.1342   YY=            -22.1342   ZZ=            -42.6840
   XY=             -0.0000   XZ=              0.0000   YZ=             -0.0000

 MP4SDQ=-299.9805148\CCSD=-299.967535\CCSD(T)=-300.0215717\RMSD=9.974e-
 Normal termination of Gaussian 16 at Sat Jan 14 23:50:58 2023.
