 Gaussian 16, Revision A.03,
 Gaussian 16:  ES64L-G16RevA.03 25-Dec-2016

 ---------------------------------------------------------------
 #p ROCCSD(T)/cc-pVTZ Guess=Read SCF=(VeryTight,CDIIS,VShift=10)
 ---------------------------------------------------------------

 ---------
 O2_O2_163
 ---------
 Symbolic Z-matrix:
 Charge = -1 Multiplicity = 6

                         Standard orientation:
 ---------------------------------------------------------------------
 Center     Atomic      Atomic             Coordinates (Angstroms)
 Number     Number       Type             X           Y           Z
 ---------------------------------------------------------------------
      1          8           0        0.000000    0.000000    1.946500
      2          8           0        0.000000    0.000000    3.298880
      3          8           0        0.000000    0.000000   -3.298880
      4          8           0        0.000000    0.000000   -1.946500
 ---------------------------------------------------------------------

 SCF Done:  E(ROHF) =  -298.994697776     A.U. after   11 cycles
 E2 =    -0.1075457712D+01 EUMP2 =    -0.30007015548790D+03
 CCSD(T)
 CCSD(T)= -0.30004208023D+03

 The electronic state is 6-SGG.
 Alpha  occ. eigenvalues --  -20.50825 -20.50824 -20.47508 -20.47508  -1.36160
 Alpha  occ. eigenvalues --   -1.36152  -1.00129  -0.99902  -0.52430  -0.52430
 Alpha  occ. eigenvalues --   -0.52410  -0.52410  -0.51360  -0.50654  -0.32361
 Alpha  occ. eigenvalues --   -0.32361  -0.32325  -0.32325   0.18374
 Alpha virt. eigenvalues --    0.31626   0.80029   0.89441   0.90111   0.90111
 Alpha virt. eigenvalues --    0.90632   0.90632   0.92743   0.99208   0.99208
 Alpha virt. eigenvalues --    1.00450   1.00450   1.03459   1.10673   1.10728

 Mulliken charges and spin densities:
               1          2
     1  O   -0.179546   1.340410
     2  O   -0.320454   1.159590
     3  O   -0.320454   1.159590
     4  O   -0.179546   1.340410
 Sum of Mulliken charges =  -1.00000   5.00000

 Dipole moment (field-independent basis, Debye):
    X=             -0.0000    Y=             -0.0000    Z=              0.0000  Tot=              0.0000
 Quadrupole moment (field-independent basis, Debye-Ang):
   XX=            -22.1874   YY=            -22.1874   ZZ=            -64.7800
   XY=             -0.0000   XZ=              0.0000   YZ=             -0.0000

 \MP4SDQ=-300.0032052\CCSD=-299.9899824\CCSD(T)=-300.0420802\RMSD=5.708
 Normal termination of Gaussian 16 at Sun Jan 15 06:15:31 2023.
