 Gaussian 16, Revision A.03,
 Gaussian 16:  ES64L-G16RevA.03 25-Dec-2016

 ---------------------------------------------------------------
 #p ROCCSD(T)/cc-pVTZ Guess=Read SCF=(VeryTight,CDIIS,VShift=10)
 ---------------------------------------------------------------

 ---------
 O2_O2_155
 ---------
 Symbolic Z-matrix:
 Charge = -1 Multiplicity = 6

                         Standard orientation:
 ---------------------------------------------------------------------
 Center     Atomic      Atomic             Coordinates (Angstroms)
 Number     Number       Type             X           Y           Z
 ---------------------------------------------------------------------
      1          8           0        0.000000    0.000000    1.889866
      2          8           0        0.000000    0.000000    3.242246
      3          8           0        0.000000    0.000000   -3.242246
      4          8           0        0.000000    0.000000   -1.889866
 ---------------------------------------------------------------------

 SCF Done:  E(ROHF) =  -298.996873575     A.U. after   10 cycles
 E2 =    -0.1075065434D+01 EUMP2 =    -0.30007193900889D+03
 CCSD(T)
 CCSD(T)= -0.30004415105D+03

 The electronic state is 6-SGG.
 Alpha  occ. eigenvalues --  -20.50927 -20.50926 -20.47387 -20.47387  -1.36110
 Alpha  occ. eigenvalues --   -1.36099  -1.00059  -0.99816  -0.52402  -0.52402
 Alpha  occ. eigenvalues --   -0.52375  -0.52375  -0.51274  -0.50465  -0.32302
 Alpha  occ. eigenvalues --   -0.32302  -0.32255  -0.32255   0.18194
 Alpha virt. eigenvalues --    0.32201   0.79260   0.89647   0.90096   0.90096
 Alpha virt. eigenvalues --    0.90779   0.90779   0.92585   0.99135   0.99135
 Alpha virt. eigenvalues --    1.00747   1.00747   1.05812   1.10737   1.10808

 Mulliken charges and spin densities:
               1          2
     1  O   -0.176702   1.346247
     2  O   -0.323298   1.153753
     3  O   -0.323298   1.153753
     4  O   -0.176702   1.346247
 Sum of Mulliken charges =  -1.00000   5.00000

 Dipole moment (field-independent basis, Debye):
    X=             -0.0000    Y=              0.0000    Z=             -0.0000  Tot=              0.0000
 Quadrupole moment (field-independent basis, Debye-Ang):
   XX=            -22.1907   YY=            -22.1907   ZZ=            -63.3049
   XY=             -0.0000   XZ=              0.0000   YZ=             -0.0000

 MP4SDQ=-300.0054466\CCSD=-299.9920697\CCSD(T)=-300.0441511\RMSD=9.545e
 Normal termination of Gaussian 16 at Sun Jan 15 05:51:28 2023.
