 Gaussian 16, Revision A.03,
 Gaussian 16:  ES64L-G16RevA.03 25-Dec-2016

 ---------------------------------------------------------------
 #p ROCCSD(T)/cc-pVTZ Guess=Read SCF=(VeryTight,CDIIS,VShift=10)
 ---------------------------------------------------------------

 --------
 O2_O2_25
 --------
 Symbolic Z-matrix:
 Charge = -1 Multiplicity = 6

                         Standard orientation:
 ---------------------------------------------------------------------
 Center     Atomic      Atomic             Coordinates (Angstroms)
 Number     Number       Type             X           Y           Z
 ---------------------------------------------------------------------
      1          8           0        0.000000    0.000000    0.969558
      2          8           0        0.000000    0.000000    2.321938
      3          8           0        0.000000    0.000000   -2.321938
      4          8           0        0.000000    0.000000   -0.969558
 ---------------------------------------------------------------------

 SCF Done:  E(ROHF) =  -298.981397885     A.U. after   11 cycles
 E2 =    -0.1080356856D+01 EUMP2 =    -0.30006175474095D+03
 CCSD(T)
 CCSD(T)= -0.30003599426D+03

 The electronic state is 6-SGG.
 Alpha  occ. eigenvalues --  -20.44016 -20.44010 -20.43762 -20.43762  -1.32841
 Alpha  occ. eigenvalues --   -1.31462  -0.99879  -0.93552  -0.53471  -0.48940
 Alpha  occ. eigenvalues --   -0.48940  -0.47168  -0.47168  -0.40892  -0.29798
 Alpha  occ. eigenvalues --   -0.29798  -0.26465  -0.26465   0.14991
 Alpha virt. eigenvalues --    0.45795   0.86635   0.89664   0.91319   0.91319
 Alpha virt. eigenvalues --    0.94878   0.94878   0.98815   0.98815   1.12389
 Alpha virt. eigenvalues --    1.12621   1.16669   1.16669   1.19712   1.64883

 Mulliken charges and spin densities:
               1          2
     1  O   -0.177981   1.193066
     2  O   -0.322019   1.306934
     3  O   -0.322019   1.306934
     4  O   -0.177981   1.193066
 Sum of Mulliken charges =  -1.00000   5.00000

 Dipole moment (field-independent basis, Debye):
    X=             -0.0000    Y=              0.0000    Z=             -0.0000  Tot=              0.0000
 Quadrupole moment (field-independent basis, Debye-Ang):
   XX=            -22.1622   YY=            -22.1622   ZZ=            -44.1027
   XY=             -0.0000   XZ=              0.0000   YZ=             -0.0000

 7\MP4SDQ=-299.9957137\CCSD=-299.9822317\CCSD(T)=-300.0359943\RMSD=4.52
 Normal termination of Gaussian 16 at Sun Jan 15 00:12:54 2023.
