 Gaussian 16, Revision A.03,
 Gaussian 16:  ES64L-G16RevA.03 25-Dec-2016

 ---------------------------------------------------------------
 #p ROCCSD(T)/cc-pVTZ Guess=Read SCF=(VeryTight,CDIIS,VShift=10)
 ---------------------------------------------------------------

 -------
 O2_O2_6
 -------
 Symbolic Z-matrix:
 Charge = -1 Multiplicity = 6

                         Standard orientation:
 ---------------------------------------------------------------------
 Center     Atomic      Atomic             Coordinates (Angstroms)
 Number     Number       Type             X           Y           Z
 ---------------------------------------------------------------------
      1          8           0        0.000000    0.000000    0.835051
      2          8           0        0.000000    0.000000    2.187431
      3          8           0        0.000000    0.000000   -2.187431
      4          8           0        0.000000    0.000000   -0.835051
 ---------------------------------------------------------------------

 SCF Done:  E(ROHF) =  -298.932446356     A.U. after   11 cycles
 E2 =    -0.1067862617D+01 EUMP2 =    -0.30000030897283D+03
 CCSD(T)
 CCSD(T)= -0.29998842841D+03

 The electronic state is 6-SGG.
 Alpha  occ. eigenvalues --  -20.43459 -20.43459 -20.39815 -20.39803  -1.32542
 Alpha  occ. eigenvalues --   -1.29872  -1.02476  -0.90307  -0.55572  -0.48588
 Alpha  occ. eigenvalues --   -0.48588  -0.45965  -0.45965  -0.35729  -0.29949
 Alpha  occ. eigenvalues --   -0.29949  -0.22899  -0.22899   0.13530
 Alpha virt. eigenvalues --    0.53752   0.85430   0.88125   0.93394   0.93394
 Alpha virt. eigenvalues --    0.95076   0.95076   1.01088   1.01088   1.12533
 Alpha virt. eigenvalues --    1.12617   1.19938   1.19938   1.27889   1.65344

 Mulliken charges and spin densities:
               1          2
     1  O   -0.225039   1.046863
     2  O   -0.274961   1.453137
     3  O   -0.274961   1.453137
     4  O   -0.225039   1.046863
 Sum of Mulliken charges =  -1.00000   5.00000

 Dipole moment (field-independent basis, Debye):
    X=             -0.0000    Y=              0.0000    Z=             -0.0000  Tot=              0.0000
 Quadrupole moment (field-independent basis, Debye-Ang):
   XX=            -22.0702   YY=            -22.0702   ZZ=            -40.7674
   XY=             -0.0000   XZ=              0.0000   YZ=             -0.0000

 4SDQ=-299.9456033\CCSD=-299.934027\CCSD(T)=-299.9884284\RMSD=4.301e-09
 Normal termination of Gaussian 16 at Sat Jan 14 23:22:39 2023.
