 Gaussian 16, Revision A.03,
 Gaussian 16:  ES64L-G16RevA.03 25-Dec-2016

 ---------------------------------------------------------------
 #p ROCCSD(T)/cc-pVTZ Guess=Read SCF=(VeryTight,CDIIS,VShift=10)
 ---------------------------------------------------------------

 ---------
 O2_O2_205
 ---------
 Symbolic Z-matrix:
 Charge = -1 Multiplicity = 6

                         Standard orientation:
 ---------------------------------------------------------------------
 Center     Atomic      Atomic             Coordinates (Angstroms)
 Number     Number       Type             X           Y           Z
 ---------------------------------------------------------------------
      1          8           0        0.000000    0.000000    2.243830
      2          8           0        0.000000    0.000000    3.596210
      3          8           0        0.000000    0.000000   -3.596210
      4          8           0        0.000000    0.000000   -2.243830
 ---------------------------------------------------------------------

 SCF Done:  E(ROHF) =  -298.986400513     A.U. after   11 cycles
 E2 =    -0.1077103080D+01 EUMP2 =    -0.30006350359217D+03
 CCSD(T)
 CCSD(T)= -0.30003428343D+03

 The electronic state is 6-SGG.
 Alpha  occ. eigenvalues --  -20.50490 -20.50489 -20.47987 -20.47986  -1.36407
 Alpha  occ. eigenvalues --   -1.36405  -1.00456  -1.00265  -0.52599  -0.52599
 Alpha  occ. eigenvalues --   -0.52595  -0.52595  -0.51781  -0.51399  -0.32632
 Alpha  occ. eigenvalues --   -0.32632  -0.32624  -0.32624   0.19017
 Alpha virt. eigenvalues --    0.29303   0.83632   0.87459   0.89978   0.89978
 Alpha virt. eigenvalues --    0.90085   0.90085   0.93726   0.96601   0.99242
 Alpha virt. eigenvalues --    0.99242   0.99509   0.99509   1.10363   1.10366

 Mulliken charges and spin densities:
               1          2
     1  O   -0.190778   1.320074
     2  O   -0.309222   1.179926
     3  O   -0.309222   1.179926
     4  O   -0.190778   1.320074
 Sum of Mulliken charges =  -1.00000   5.00000

 Dipole moment (field-independent basis, Debye):
    X=             -0.0000    Y=              0.0000    Z=             -0.0000  Tot=              0.0000
 Quadrupole moment (field-independent basis, Debye-Ang):
   XX=            -22.1721   YY=            -22.1721   ZZ=            -72.8923
   XY=             -0.0000   XZ=              0.0000   YZ=             -0.0000

 \MP4SDQ=-299.9947093\CCSD=-299.9820781\CCSD(T)=-300.0342834\RMSD=7.927
 Normal termination of Gaussian 16 at Sun Jan 15 08:07:45 2023.
