 Gaussian 16, Revision A.03,
 Gaussian 16:  ES64L-G16RevA.03 25-Dec-2016

 ---------------------------------------------------------------
 #p ROCCSD(T)/cc-pVTZ Guess=Read SCF=(VeryTight,CDIIS,VShift=10)
 ---------------------------------------------------------------

 ---------
 O2_O2_257
 ---------
 Symbolic Z-matrix:
 Charge = -1 Multiplicity = 6

                         Standard orientation:
 ---------------------------------------------------------------------
 Center     Atomic      Atomic             Coordinates (Angstroms)
 Number     Number       Type             X           Y           Z
 ---------------------------------------------------------------------
      1          8           0        0.000000    0.000000    2.611954
      2          8           0        0.000000    0.000000    3.964334
      3          8           0        0.000000    0.000000   -3.964334
      4          8           0        0.000000    0.000000   -2.611954
 ---------------------------------------------------------------------

 SCF Done:  E(ROHF) =  -298.982937250     A.U. after   11 cycles
 E2 =    -0.1078301805D+01 EUMP2 =    -0.30006123905526D+03
 CCSD(T)
 CCSD(T)= -0.30003103709D+03

 The electronic state is 6-SGG.
 Alpha  occ. eigenvalues --  -20.50550 -20.50549 -20.48587 -20.48587  -1.36803
 Alpha  occ. eigenvalues --   -1.36802  -1.00895  -1.00714  -0.52957  -0.52957
 Alpha  occ. eigenvalues --   -0.52957  -0.52957  -0.52244  -0.52021  -0.33054
 Alpha  occ. eigenvalues --   -0.33054  -0.33053  -0.33053   0.19283
 Alpha virt. eigenvalues --    0.27696   0.84826   0.85437   0.89592   0.89592
 Alpha virt. eigenvalues --    0.89604   0.89604   0.94086   0.94597   0.98877
 Alpha virt. eigenvalues --    0.98877   0.98913   0.98913   1.09935   1.09938

 Mulliken charges and spin densities:
               1          2
     1  O   -0.201576   1.306312
     2  O   -0.298424   1.193688
     3  O   -0.298424   1.193688
     4  O   -0.201576   1.306312
 Sum of Mulliken charges =  -1.00000   5.00000

 Dipole moment (field-independent basis, Debye):
    X=             -0.0000    Y=              0.0000    Z=              0.0000  Tot=              0.0000
 Quadrupole moment (field-independent basis, Debye-Ang):
   XX=            -22.1637   YY=            -22.1637   ZZ=            -83.6727
   XY=             -0.0000   XZ=              0.0000   YZ=             -0.0000

 P4SDQ=-299.9911385\CCSD=-299.9787741\CCSD(T)=-300.0310371\RMSD=1.293e-
 Normal termination of Gaussian 16 at Mon Jan 16 04:38:42 2023.
