 Gaussian 16, Revision A.03,
 Gaussian 16:  ES64L-G16RevA.03 25-Dec-2016

 ---------------------------------------------------------------
 #p ROCCSD(T)/cc-pVTZ Guess=Read SCF=(VeryTight,CDIIS,VShift=10)
 ---------------------------------------------------------------

 ---------
 O2_O2_271
 ---------
 Symbolic Z-matrix:
 Charge = -1 Multiplicity = 6

                         Standard orientation:
 ---------------------------------------------------------------------
 Center     Atomic      Atomic             Coordinates (Angstroms)
 Number     Number       Type             X           Y           Z
 ---------------------------------------------------------------------
      1          8           0        0.000000    0.000000    2.711063
      2          8           0        0.000000    0.000000    4.063444
      3          8           0        0.000000    0.000000   -4.063444
      4          8           0        0.000000    0.000000   -2.711063
 ---------------------------------------------------------------------

 SCF Done:  E(ROHF) =  -298.982639936     A.U. after    9 cycles
 E2 =    -0.1078530877D+01 EUMP2 =    -0.30006117081294D+03
 CCSD(T)
 CCSD(T)= -0.30003075188D+03

 The electronic state is 6-SGG.
 Alpha  occ. eigenvalues --  -20.50603 -20.50602 -20.48749 -20.48749  -1.36913
 Alpha  occ. eigenvalues --   -1.36912  -1.01012  -1.00832  -0.53062  -0.53062
 Alpha  occ. eigenvalues --   -0.53062  -0.53062  -0.52357  -0.52158  -0.33171
 Alpha  occ. eigenvalues --   -0.33171  -0.33170  -0.33170   0.19308
 Alpha virt. eigenvalues --    0.27394   0.84822   0.85162   0.89482   0.89482
 Alpha virt. eigenvalues --    0.89489   0.89489   0.94031   0.94380   0.98764
 Alpha virt. eigenvalues --    0.98764   0.98788   0.98788   1.09824   1.09826

 Mulliken charges and spin densities:
               1          2
     1  O   -0.204167   1.303302
     2  O   -0.295833   1.196698
     3  O   -0.295833   1.196698
     4  O   -0.204167   1.303302
 Sum of Mulliken charges =  -1.00000   5.00000

 Dipole moment (field-independent basis, Debye):
    X=             -0.0000    Y=              0.0000    Z=              0.0000  Tot=              0.0000
 Quadrupole moment (field-independent basis, Debye-Ang):
   XX=            -22.1628   YY=            -22.1628   ZZ=            -86.7584
   XY=             -0.0000   XZ=              0.0000   YZ=             -0.0000

 P4SDQ=-299.9908187\CCSD=-299.9784843\CCSD(T)=-300.0307519\RMSD=7.980e-
 Normal termination of Gaussian 16 at Mon Jan 16 04:55:16 2023.
