 Gaussian 16, Revision A.03,
 Gaussian 16:  ES64L-G16RevA.03 25-Dec-2016

 ---------------------------------------------------------------
 #p ROCCSD(T)/cc-pVTZ Guess=Read SCF=(VeryTight,CDIIS,VShift=10)
 ---------------------------------------------------------------

 ---------
 O2_O2_221
 ---------
 Symbolic Z-matrix:
 Charge = -1 Multiplicity = 6

                         Standard orientation:
 ---------------------------------------------------------------------
 Center     Atomic      Atomic             Coordinates (Angstroms)
 Number     Number       Type             X           Y           Z
 ---------------------------------------------------------------------
      1          8           0        0.000000    0.000000    2.357099
      2          8           0        0.000000    0.000000    3.709479
      3          8           0        0.000000    0.000000   -3.709479
      4          8           0        0.000000    0.000000   -2.357099
 ---------------------------------------------------------------------

 SCF Done:  E(ROHF) =  -298.984749400     A.U. after   13 cycles
 E2 =    -0.1077547767D+01 EUMP2 =    -0.30006229716652D+03
 CCSD(T)
 CCSD(T)= -0.30003274095D+03

 The electronic state is 6-SGG.
 Alpha  occ. eigenvalues --  -20.50471 -20.50470 -20.48166 -20.48165  -1.36522
 Alpha  occ. eigenvalues --   -1.36520  -1.00588  -1.00402  -0.52698  -0.52698
 Alpha  occ. eigenvalues --   -0.52695  -0.52695  -0.51930  -0.51614  -0.32754
 Alpha  occ. eigenvalues --   -0.32754  -0.32749  -0.32749   0.19142
 Alpha virt. eigenvalues --    0.28698   0.84313   0.86647   0.89870   0.89870
 Alpha virt. eigenvalues --    0.89925   0.89925   0.93967   0.95627   0.99152
 Alpha virt. eigenvalues --    0.99152   0.99293   0.99293   1.10232   1.10235

 Mulliken charges and spin densities:
               1          2
     1  O   -0.194292   1.315210
     2  O   -0.305708   1.184790
     3  O   -0.305708   1.184790
     4  O   -0.194292   1.315210
 Sum of Mulliken charges =  -1.00000   5.00000

 Dipole moment (field-independent basis, Debye):
    X=             -0.0000    Y=              0.0000    Z=              0.0000  Tot=              0.0000
 Quadrupole moment (field-independent basis, Debye-Ang):
   XX=            -22.1684   YY=            -22.1684   ZZ=            -76.1098
   XY=             -0.0000   XZ=              0.0000   YZ=             -0.0000

 72\MP4SDQ=-299.9930185\CCSD=-299.9805083\CCSD(T)=-300.0327409\RMSD=5.7
 Normal termination of Gaussian 16 at Sun Jan 15 08:49:11 2023.
