 Gaussian 16, Revision A.03,
 Gaussian 16:  ES64L-G16RevA.03 25-Dec-2016

 ---------------------------------------------------------------
 #p ROCCSD(T)/cc-pVTZ Guess=Read SCF=(VeryTight,CDIIS,VShift=10)
 ---------------------------------------------------------------

 ---------
 O2_O2_192
 ---------
 Symbolic Z-matrix:
 Charge = -1 Multiplicity = 6

                         Standard orientation:
 ---------------------------------------------------------------------
 Center     Atomic      Atomic             Coordinates (Angstroms)
 Number     Number       Type             X           Y           Z
 ---------------------------------------------------------------------
      1          8           0        0.000000    0.000000    2.151800
      2          8           0        0.000000    0.000000    3.504180
      3          8           0        0.000000    0.000000   -3.504180
      4          8           0        0.000000    0.000000   -2.151800
 ---------------------------------------------------------------------

 SCF Done:  E(ROHF) =  -298.988314842     A.U. after   12 cycles
 E2 =    -0.1076674021D+01 EUMP2 =    -0.30006498886307D+03
 CCSD(T)
 CCSD(T)= -0.30003607260D+03

 The electronic state is 6-SGG.
 Alpha  occ. eigenvalues --  -20.50546 -20.50545 -20.47847 -20.47846  -1.36324
 Alpha  occ. eigenvalues --   -1.36321  -1.00353  -1.00156  -0.52534  -0.52534
 Alpha  occ. eigenvalues --   -0.52526  -0.52526  -0.51656  -0.51202  -0.32543
 Alpha  occ. eigenvalues --   -0.32543  -0.32530  -0.32530   0.18872
 Alpha virt. eigenvalues --    0.29898   0.82774   0.88173   0.90049   0.90049
 Alpha virt. eigenvalues --    0.90227   0.90227   0.93444   0.97890   0.99284
 Alpha virt. eigenvalues --    0.99284   0.99724   0.99724   1.10463   1.10475

 Mulliken charges and spin densities:
               1          2
     1  O   -0.187733   1.324849
     2  O   -0.312267   1.175151
     3  O   -0.312267   1.175151
     4  O   -0.187733   1.324849
 Sum of Mulliken charges =  -1.00000   5.00000

 Dipole moment (field-independent basis, Debye):
    X=             -0.0000    Y=              0.0000    Z=             -0.0000  Tot=              0.0000
 Quadrupole moment (field-independent basis, Debye-Ang):
   XX=            -22.1760   YY=            -22.1760   ZZ=            -70.3301
   XY=             -0.0000   XZ=              0.0000   YZ=             -0.0000

 9\MP4SDQ=-299.9966657\CCSD=-299.9838971\CCSD(T)=-300.0360726\RMSD=8.01
 Normal termination of Gaussian 16 at Sun Jan 15 07:32:22 2023.
