 Gaussian 16, Revision A.03,
 Gaussian 16:  ES64L-G16RevA.03 25-Dec-2016

 ---------------------------------------------------------------
 #p ROCCSD(T)/cc-pVTZ Guess=Read SCF=(VeryTight,CDIIS,VShift=10)
 ---------------------------------------------------------------

 ---------
 O2_O2_289
 ---------
 Symbolic Z-matrix:
 Charge = -1 Multiplicity = 6

                         Standard orientation:
 ---------------------------------------------------------------------
 Center     Atomic      Atomic             Coordinates (Angstroms)
 Number     Number       Type             X           Y           Z
 ---------------------------------------------------------------------
      1          8           0        0.000000    0.000000    2.838490
      2          8           0        0.000000    0.000000    4.190871
      3          8           0        0.000000    0.000000   -4.190871
      4          8           0        0.000000    0.000000   -2.838490
 ---------------------------------------------------------------------

 SCF Done:  E(ROHF) =  -298.982419554     A.U. after    9 cycles
 E2 =    -0.1078790022D+01 EUMP2 =    -0.30006120957691D+03
 CCSD(T)
 CCSD(T)= -0.30003053598D+03

 The electronic state is 6-SGG.
 Alpha  occ. eigenvalues --  -20.50676 -20.50675 -20.48951 -20.48951  -1.37050
 Alpha  occ. eigenvalues --   -1.37050  -1.01157  -1.00978  -0.53194  -0.53194
 Alpha  occ. eigenvalues --   -0.53194  -0.53194  -0.52495  -0.52321  -0.33317
 Alpha  occ. eigenvalues --   -0.33317  -0.33317  -0.33317   0.19327
 Alpha virt. eigenvalues --    0.27052   0.84746   0.84902   0.89346   0.89346
 Alpha virt. eigenvalues --    0.89349   0.89349   0.93925   0.94162   0.98623
 Alpha virt. eigenvalues --    0.98623   0.98638   0.98638   1.09687   1.09688

 Mulliken charges and spin densities:
               1          2
     1  O   -0.207278   1.299717
     2  O   -0.292722   1.200283
     3  O   -0.292722   1.200283
     4  O   -0.207278   1.299717
 Sum of Mulliken charges =  -1.00000   5.00000

 Dipole moment (field-independent basis, Debye):
    X=             -0.0000    Y=              0.0000    Z=              0.0000  Tot=              0.0000
 Quadrupole moment (field-independent basis, Debye-Ang):
   XX=            -22.1619   YY=            -22.1619   ZZ=            -90.8583
   XY=             -0.0000   XZ=              0.0000   YZ=             -0.0000

 P4SDQ=-299.990572\CCSD=-299.9782651\CCSD(T)=-300.030536\RMSD=6.896e-09
 Normal termination of Gaussian 16 at Mon Jan 16 05:17:25 2023.
