 Gaussian 16, Revision A.03,
 Gaussian 16:  ES64L-G16RevA.03 25-Dec-2016

 ---------------------------------------------------------------
 #p ROCCSD(T)/cc-pVTZ Guess=Read SCF=(VeryTight,CDIIS,VShift=10)
 ---------------------------------------------------------------

 ---------
 O2_O2_106
 ---------
 Symbolic Z-matrix:
 Charge = -1 Multiplicity = 6

                         Standard orientation:
 ---------------------------------------------------------------------
 Center     Atomic      Atomic             Coordinates (Angstroms)
 Number     Number       Type             X           Y           Z
 ---------------------------------------------------------------------
      1          8           0        0.000000    0.000000    1.542981
      2          8           0        0.000000    0.000000    2.895361
      3          8           0        0.000000    0.000000   -2.895361
      4          8           0        0.000000    0.000000   -1.542981
 ---------------------------------------------------------------------

 SCF Done:  E(ROHF) =  -299.007752052     A.U. after   14 cycles
 E2 =    -0.1073599057D+01 EUMP2 =    -0.30008135110837D+03
 CCSD(T)
 CCSD(T)= -0.30005524176D+03

 The electronic state is 6-SGG.
 Alpha  occ. eigenvalues --  -20.50839 -20.50838 -20.46030 -20.46029  -1.35382
 Alpha  occ. eigenvalues --   -1.35320  -0.99322  -0.98783  -0.51767  -0.51767
 Alpha  occ. eigenvalues --   -0.51621  -0.51621  -0.50805  -0.48774  -0.31487
 Alpha  occ. eigenvalues --   -0.31487  -0.31273  -0.31273   0.17010
 Alpha virt. eigenvalues --    0.35950   0.80175   0.89549   0.89549   0.89718
 Alpha virt. eigenvalues --    0.92272   0.92272   0.92275   0.98341   0.98341
 Alpha virt. eigenvalues --    1.04287   1.04287   1.11324   1.11655   1.27922

 Mulliken charges and spin densities:
               1          2
     1  O   -0.155474   1.375357
     2  O   -0.344526   1.124643
     3  O   -0.344526   1.124643
     4  O   -0.155474   1.375357
 Sum of Mulliken charges =  -1.00000   5.00000

 Dipole moment (field-independent basis, Debye):
    X=             -0.0000    Y=              0.0000    Z=              0.0000  Tot=              0.0000
 Quadrupole moment (field-independent basis, Debye-Ang):
   XX=            -22.1979   YY=            -22.1979   ZZ=            -55.3583
   XY=             -0.0000   XZ=              0.0000   YZ=             -0.0000

 11\MP4SDQ=-300.0170999\CCSD=-300.0030249\CCSD(T)=-300.0552418\RMSD=2.0
 Normal termination of Gaussian 16 at Sun Jan 15 03:44:24 2023.
