 Gaussian 16, Revision A.03,
 Gaussian 16:  ES64L-G16RevA.03 25-Dec-2016

 ---------------------------------------------------------------
 #p ROCCSD(T)/cc-pVTZ Guess=Read SCF=(VeryTight,CDIIS,VShift=10)
 ---------------------------------------------------------------

 --------
 O2_O2_62
 --------
 Symbolic Z-matrix:
 Charge = -1 Multiplicity = 6

                         Standard orientation:
 ---------------------------------------------------------------------
 Center     Atomic      Atomic             Coordinates (Angstroms)
 Number     Number       Type             X           Y           Z
 ---------------------------------------------------------------------
      1          8           0        0.000000    0.000000    1.231492
      2          8           0        0.000000    0.000000    2.583872
      3          8           0        0.000000    0.000000   -2.583872
      4          8           0        0.000000    0.000000   -1.231492
 ---------------------------------------------------------------------

 SCF Done:  E(ROHF) =  -299.006812826     A.U. after   14 cycles
 E2 =    -0.1076950344D+01 EUMP2 =    -0.30008376316968D+03
 CCSD(T)
 CCSD(T)= -0.30005674181D+03

 The electronic state is 6-SGG.
 Alpha  occ. eigenvalues --  -20.48536 -20.48533 -20.44465 -20.44464  -1.34028
 Alpha  occ. eigenvalues --   -1.33684  -0.98690  -0.96836  -0.51266  -0.50303
 Alpha  occ. eigenvalues --   -0.50303  -0.49678  -0.49678  -0.46022  -0.30321
 Alpha  occ. eigenvalues --   -0.30321  -0.29443  -0.29443   0.16151
 Alpha virt. eigenvalues --    0.39404   0.88467   0.88821   0.88821   0.91692
 Alpha virt. eigenvalues --    0.93975   0.93975   0.95933   0.97973   0.97973
 Alpha virt. eigenvalues --    1.10500   1.10500   1.12137   1.12926   1.51200

 Mulliken charges and spin densities:
               1          2
     1  O   -0.147446   1.332155
     2  O   -0.352554   1.167845
     3  O   -0.352554   1.167845
     4  O   -0.147446   1.332155
 Sum of Mulliken charges =  -1.00000   5.00000

 Dipole moment (field-independent basis, Debye):
    X=             -0.0000    Y=              0.0000    Z=             -0.0000  Tot=              0.0000
 Quadrupole moment (field-independent basis, Debye-Ang):
   XX=            -22.1970   YY=            -22.1970   ZZ=            -49.5917
   XY=             -0.0000   XZ=              0.0000   YZ=             -0.0000

 2\MP4SDQ=-300.0179135\CCSD=-300.0039513\CCSD(T)=-300.0567418\RMSD=2.85
 Normal termination of Gaussian 16 at Sun Jan 15 01:47:48 2023.
