 Gaussian 16, Revision A.03,
 Gaussian 16:  ES64L-G16RevA.03 25-Dec-2016

 ---------------------------------------------------------------
 #p ROCCSD(T)/cc-pVTZ Guess=Read SCF=(VeryTight,CDIIS,VShift=10)
 ---------------------------------------------------------------

 ---------
 O2_O2_223
 ---------
 Symbolic Z-matrix:
 Charge = -1 Multiplicity = 6

                         Standard orientation:
 ---------------------------------------------------------------------
 Center     Atomic      Atomic             Coordinates (Angstroms)
 Number     Number       Type             X           Y           Z
 ---------------------------------------------------------------------
      1          8           0        0.000000    0.000000    2.371258
      2          8           0        0.000000    0.000000    3.723638
      3          8           0        0.000000    0.000000   -3.723638
      4          8           0        0.000000    0.000000   -2.371258
 ---------------------------------------------------------------------

 SCF Done:  E(ROHF) =  -298.984588992     A.U. after    9 cycles
 E2 =    -0.1077597129D+01 EUMP2 =    -0.30006218612101D+03
 CCSD(T)
 CCSD(T)= -0.30003259094D+03

 The electronic state is 6-SGG.
 Alpha  occ. eigenvalues --  -20.50472 -20.50471 -20.48188 -20.48188  -1.36537
 Alpha  occ. eigenvalues --   -1.36535  -1.00605  -1.00419  -0.52711  -0.52711
 Alpha  occ. eigenvalues --   -0.52709  -0.52709  -0.51948  -0.51639  -0.32770
 Alpha  occ. eigenvalues --   -0.32770  -0.32766  -0.32766   0.19154
 Alpha virt. eigenvalues --    0.28631   0.84373   0.86556   0.89856   0.89856
 Alpha virt. eigenvalues --    0.89906   0.89906   0.93988   0.95538   0.99138
 Alpha virt. eigenvalues --    0.99138   0.99269   0.99269   1.10216   1.10218

 Mulliken charges and spin densities:
               1          2
     1  O   -0.194710   1.314670
     2  O   -0.305290   1.185330
     3  O   -0.305290   1.185330
     4  O   -0.194710   1.314670
 Sum of Mulliken charges =  -1.00000   5.00000

 Dipole moment (field-independent basis, Debye):
    X=             -0.0000    Y=              0.0000    Z=              0.0000  Tot=              0.0000
 Quadrupole moment (field-independent basis, Debye-Ang):
   XX=            -22.1680   YY=            -22.1680   ZZ=            -76.5180
   XY=             -0.0000   XZ=              0.0000   YZ=             -0.0000

 \MP4SDQ=-299.9928537\CCSD=-299.9803556\CCSD(T)=-300.0325909\RMSD=2.340
 Normal termination of Gaussian 16 at Sun Jan 15 08:54:24 2023.
