 Gaussian 16, Revision A.03,
 Gaussian 16:  ES64L-G16RevA.03 25-Dec-2016

 ---------------------------------------------------------------
 #p ROCCSD(T)/cc-pVTZ Guess=Read SCF=(VeryTight,CDIIS,VShift=10)
 ---------------------------------------------------------------

 ---------
 O2_O2_212
 ---------
 Symbolic Z-matrix:
 Charge = -1 Multiplicity = 6

                         Standard orientation:
 ---------------------------------------------------------------------
 Center     Atomic      Atomic             Coordinates (Angstroms)
 Number     Number       Type             X           Y           Z
 ---------------------------------------------------------------------
      1          8           0        0.000000    0.000000    2.293385
      2          8           0        0.000000    0.000000    3.645765
      3          8           0        0.000000    0.000000   -3.645765
      4          8           0        0.000000    0.000000   -2.293385
 ---------------------------------------------------------------------

 SCF Done:  E(ROHF) =  -298.985592014     A.U. after   11 cycles
 E2 =    -0.1077307956D+01 EUMP2 =    -0.30006289996919D+03
 CCSD(T)
 CCSD(T)= -0.30003352830D+03

 The electronic state is 6-SGG.
 Alpha  occ. eigenvalues --  -20.50476 -20.50475 -20.48064 -20.48064  -1.36456
 Alpha  occ. eigenvalues --   -1.36454  -1.00513  -1.00325  -0.52640  -0.52640
 Alpha  occ. eigenvalues --   -0.52637  -0.52637  -0.51847  -0.51497  -0.32684
 Alpha  occ. eigenvalues --   -0.32684  -0.32678  -0.32678   0.19078
 Alpha virt. eigenvalues --    0.29023   0.83977   0.87087   0.89933   0.89933
 Alpha virt. eigenvalues --    0.90013   0.90013   0.93847   0.96110   0.99207
 Alpha virt. eigenvalues --    0.99207   0.99409   0.99409   1.10308   1.10308

 Mulliken charges and spin densities:
               1          2
     1  O   -0.192340   1.317840
     2  O   -0.307660   1.182160
     3  O   -0.307660   1.182160
     4  O   -0.192340   1.317840
 Sum of Mulliken charges =  -1.00000   5.00000

 Dipole moment (field-independent basis, Debye):
    X=             -0.0000    Y=              0.0000    Z=             -0.0000  Tot=              0.0000
 Quadrupole moment (field-independent basis, Debye-Ang):
   XX=            -22.1703   YY=            -22.1703   ZZ=            -74.2907
   XY=             -0.0000   XZ=              0.0000   YZ=             -0.0000

 -299.9938822\CCSD=-299.9813097\CCSD(T)=-300.0335283\RMSD=6.505e-10\PG=
 Normal termination of Gaussian 16 at Sun Jan 15 08:26:09 2023.
