 Gaussian 16, Revision A.03,
 Gaussian 16:  ES64L-G16RevA.03 25-Dec-2016

 ---------------------------------------------------------------
 #p ROCCSD(T)/cc-pVTZ Guess=Read SCF=(VeryTight,CDIIS,VShift=10)
 ---------------------------------------------------------------

 ---------
 O2_O2_158
 ---------
 Symbolic Z-matrix:
 Charge = -1 Multiplicity = 6

                         Standard orientation:
 ---------------------------------------------------------------------
 Center     Atomic      Atomic             Coordinates (Angstroms)
 Number     Number       Type             X           Y           Z
 ---------------------------------------------------------------------
      1          8           0        0.000000    0.000000    1.911104
      2          8           0        0.000000    0.000000    3.263484
      3          8           0        0.000000    0.000000   -3.263484
      4          8           0        0.000000    0.000000   -1.911104
 ---------------------------------------------------------------------

 SCF Done:  E(ROHF) =  -298.996045796     A.U. after   13 cycles
 E2 =    -0.1075214214D+01 EUMP2 =    -0.30007126000937D+03
 CCSD(T)
 CCSD(T)= -0.30004336152D+03

 The electronic state is 6-SGG.
 Alpha  occ. eigenvalues --  -20.50889 -20.50888 -20.47435 -20.47435  -1.36129
 Alpha  occ. eigenvalues --   -1.36120  -1.00086  -0.99849  -0.52413  -0.52413
 Alpha  occ. eigenvalues --   -0.52389  -0.52389  -0.51306  -0.50538  -0.32326
 Alpha  occ. eigenvalues --   -0.32326  -0.32283  -0.32283   0.18263
 Alpha virt. eigenvalues --    0.31981   0.79538   0.89577   0.90103   0.90103
 Alpha virt. eigenvalues --    0.90722   0.90722   0.92641   0.99165   0.99165
 Alpha virt. eigenvalues --    1.00630   1.00630   1.04886   1.10712   1.10777

 Mulliken charges and spin densities:
               1          2
     1  O   -0.177805   1.343986
     2  O   -0.322195   1.156014
     3  O   -0.322195   1.156014
     4  O   -0.177805   1.343986
 Sum of Mulliken charges =  -1.00000   5.00000

 Dipole moment (field-independent basis, Debye):
    X=             -0.0000    Y=              0.0000    Z=              0.0000  Tot=              0.0000
 Quadrupole moment (field-independent basis, Debye-Ang):
   XX=            -22.1895   YY=            -22.1895   ZZ=            -63.8542
   XY=             -0.0000   XZ=              0.0000   YZ=             -0.0000

 SDQ=-300.0045929\CCSD=-299.9912747\CCSD(T)=-300.0433615\RMSD=7.310e-09
 Normal termination of Gaussian 16 at Sun Jan 15 05:59:44 2023.
