 Gaussian 16, Revision A.03,
 Gaussian 16:  ES64L-G16RevA.03 25-Dec-2016

 ---------------------------------------------------------------
 #p ROCCSD(T)/cc-pVTZ Guess=Read SCF=(VeryTight,CDIIS,VShift=10)
 ---------------------------------------------------------------

 ---------
 O2_O2_122
 ---------
 Symbolic Z-matrix:
 Charge = -1 Multiplicity = 6

                         Standard orientation:
 ---------------------------------------------------------------------
 Center     Atomic      Atomic             Coordinates (Angstroms)
 Number     Number       Type             X           Y           Z
 ---------------------------------------------------------------------
      1          8           0        0.000000    0.000000    1.656249
      2          8           0        0.000000    0.000000    3.008629
      3          8           0        0.000000    0.000000   -3.008629
      4          8           0        0.000000    0.000000   -1.656249
 ---------------------------------------------------------------------

 SCF Done:  E(ROHF) =  -299.005310302     A.U. after   14 cycles
 E2 =    -0.1073662278D+01 EUMP2 =    -0.30007897257999D+03
 CCSD(T)
 CCSD(T)= -0.30005247890D+03

 The electronic state is 6-SGG.
 Alpha  occ. eigenvalues --  -20.51113 -20.51112 -20.46591 -20.46590  -1.35730
 Alpha  occ. eigenvalues --   -1.35697  -0.99627  -0.99244  -0.52106  -0.52106
 Alpha  occ. eigenvalues --   -0.52021  -0.52021  -0.50920  -0.49442  -0.31858
 Alpha  occ. eigenvalues --   -0.31858  -0.31727  -0.31727   0.17373
 Alpha virt. eigenvalues --    0.34766   0.78319   0.89830   0.89830   0.89901
 Alpha virt. eigenvalues --    0.91671   0.91671   0.92281   0.98630   0.98630
 Alpha virt. eigenvalues --    1.02738   1.02738   1.11063   1.11294   1.19441

 Mulliken charges and spin densities:
               1          2
     1  O   -0.162285   1.371095
     2  O   -0.337715   1.128905
     3  O   -0.337715   1.128905
     4  O   -0.162285   1.371095
 Sum of Mulliken charges =  -1.00000   5.00000

 Dipole moment (field-independent basis, Debye):
    X=             -0.0000    Y=              0.0000    Z=             -0.0000  Tot=              0.0000
 Quadrupole moment (field-independent basis, Debye-Ang):
   XX=            -22.1984   YY=            -22.1984   ZZ=            -57.7117
   XY=             -0.0000   XZ=              0.0000   YZ=             -0.0000

 26\MP4SDQ=-300.0143125\CCSD=-300.0003642\CCSD(T)=-300.0524789\RMSD=2.8
 Normal termination of Gaussian 16 at Sun Jan 15 04:25:58 2023.
