 Gaussian 16, Revision A.03,
 Gaussian 16:  ES64L-G16RevA.03 25-Dec-2016

 ---------------------------------------------------------------
 #p ROCCSD(T)/cc-pVTZ Guess=Read SCF=(VeryTight,CDIIS,VShift=10)
 ---------------------------------------------------------------

 --------
 O2_O2_69
 --------
 Symbolic Z-matrix:
 Charge = -1 Multiplicity = 6

                         Standard orientation:
 ---------------------------------------------------------------------
 Center     Atomic      Atomic             Coordinates (Angstroms)
 Number     Number       Type             X           Y           Z
 ---------------------------------------------------------------------
      1          8           0        0.000000    0.000000    1.281047
      2          8           0        0.000000    0.000000    2.633427
      3          8           0        0.000000    0.000000   -2.633427
      4          8           0        0.000000    0.000000   -1.281047
 ---------------------------------------------------------------------

 SCF Done:  E(ROHF) =  -299.007874738     A.U. after   14 cycles
 E2 =    -0.1076070426D+01 EUMP2 =    -0.30008394516450D+03
 CCSD(T)
 CCSD(T)= -0.30005724388D+03

 The electronic state is 6-SGG.
 Alpha  occ. eigenvalues --  -20.49052 -20.49049 -20.44681 -20.44680  -1.34259
 Alpha  occ. eigenvalues --   -1.33998  -0.98718  -0.97226  -0.51075  -0.50562
 Alpha  occ. eigenvalues --   -0.50562  -0.50061  -0.50061  -0.46599  -0.30487
 Alpha  occ. eigenvalues --   -0.30487  -0.29792  -0.29792   0.16294
 Alpha virt. eigenvalues --    0.38735   0.88709   0.88816   0.88816   0.91740
 Alpha virt. eigenvalues --    0.92513   0.93733   0.93733   0.97964   0.97964
 Alpha virt. eigenvalues --    1.09377   1.09377   1.12016   1.12706   1.47968

 Mulliken charges and spin densities:
               1          2
     1  O   -0.147143   1.345055
     2  O   -0.352857   1.154945
     3  O   -0.352857   1.154945
     4  O   -0.147143   1.345055
 Sum of Mulliken charges =  -1.00000   5.00000

 Dipole moment (field-independent basis, Debye):
    X=             -0.0000    Y=              0.0000    Z=              0.0000  Tot=              0.0000
 Quadrupole moment (field-independent basis, Debye-Ang):
   XX=            -22.1967   YY=            -22.1967   ZZ=            -50.4980
   XY=             -0.0000   XZ=              0.0000   YZ=             -0.0000

 2\MP4SDQ=-300.0185712\CCSD=-300.0045748\CCSD(T)=-300.0572439\RMSD=1.71
 Normal termination of Gaussian 16 at Sun Jan 15 02:08:18 2023.
