 Gaussian 16, Revision A.03,
 Gaussian 16:  ES64L-G16RevA.03 25-Dec-2016

 ---------------------------------------------------------------
 #p ROCCSD(T)/cc-pVTZ Guess=Read SCF=(VeryTight,CDIIS,VShift=10)
 ---------------------------------------------------------------

 --------
 O2_O2_91
 --------
 Symbolic Z-matrix:
 Charge = -1 Multiplicity = 6

                         Standard orientation:
 ---------------------------------------------------------------------
 Center     Atomic      Atomic             Coordinates (Angstroms)
 Number     Number       Type             X           Y           Z
 ---------------------------------------------------------------------
      1          8           0        0.000000    0.000000    1.436791
      2          8           0        0.000000    0.000000    2.789171
      3          8           0        0.000000    0.000000   -2.789171
      4          8           0        0.000000    0.000000   -1.436791
 ---------------------------------------------------------------------

 SCF Done:  E(ROHF) =  -299.008728376     A.U. after   14 cycles
 E2 =    -0.1074157391D+01 EUMP2 =    -0.30008288576673D+03
 CCSD(T)
 CCSD(T)= -0.30005679043D+03

 The electronic state is 6-SGG.
 Alpha  occ. eigenvalues --  -20.50299 -20.50297 -20.45463 -20.45463  -1.34962
 Alpha  occ. eigenvalues --   -1.34852  -0.99026  -0.98237  -0.51329  -0.51329
 Alpha  occ. eigenvalues --   -0.51086  -0.51086  -0.50795  -0.48023  -0.31080
 Alpha  occ. eigenvalues --   -0.31080  -0.30738  -0.30738   0.16712
 Alpha virt. eigenvalues --    0.37012   0.83714   0.89208   0.89208   0.89383
 Alpha virt. eigenvalues --    0.92244   0.92881   0.92881   0.98116   0.98116
 Alpha virt. eigenvalues --    1.06125   1.06125   1.11604   1.12057   1.36367

 Mulliken charges and spin densities:
               1          2
     1  O   -0.150530   1.370194
     2  O   -0.349470   1.129806
     3  O   -0.349470   1.129806
     4  O   -0.150530   1.370194
 Sum of Mulliken charges =  -1.00000   5.00000

 Dipole moment (field-independent basis, Debye):
    X=             -0.0000    Y=              0.0000    Z=              0.0000  Tot=              0.0000
 Quadrupole moment (field-independent basis, Debye-Ang):
   XX=            -22.1966   YY=            -22.1966   ZZ=            -53.3290
   XY=             -0.0000   XZ=              0.0000   YZ=             -0.0000

 8\MP4SDQ=-300.0185111\CCSD=-300.0044249\CCSD(T)=-300.0567904\RMSD=3.73
 Normal termination of Gaussian 16 at Sun Jan 15 03:06:24 2023.
