 Gaussian 16, Revision A.03,
 Gaussian 16:  ES64L-G16RevA.03 25-Dec-2016

 ---------------------------------------------------------------
 #p ROCCSD(T)/cc-pVTZ Guess=Read SCF=(VeryTight,CDIIS,VShift=10)
 ---------------------------------------------------------------

 --------
 O2_O2_89
 --------
 Symbolic Z-matrix:
 Charge = -1 Multiplicity = 6

                         Standard orientation:
 ---------------------------------------------------------------------
 Center     Atomic      Atomic             Coordinates (Angstroms)
 Number     Number       Type             X           Y           Z
 ---------------------------------------------------------------------
      1          8           0        0.000000    0.000000    1.422633
      2          8           0        0.000000    0.000000    2.775013
      3          8           0        0.000000    0.000000   -2.775013
      4          8           0        0.000000    0.000000   -1.422633
 ---------------------------------------------------------------------

 SCF Done:  E(ROHF) =  -299.008767514     A.U. after   14 cycles
 E2 =    -0.1074278076D+01 EUMP2 =    -0.30008304558990D+03
 CCSD(T)
 CCSD(T)= -0.30005692487D+03

 The electronic state is 6-SGG.
 Alpha  occ. eigenvalues --  -20.50207 -20.50205 -20.45388 -20.45387  -1.34901
 Alpha  occ. eigenvalues --   -1.34782  -0.98989  -0.98156  -0.51264  -0.51264
 Alpha  occ. eigenvalues --   -0.51004  -0.51004  -0.50804  -0.47912  -0.31024
 Alpha  occ. eigenvalues --   -0.31024  -0.30660  -0.30660   0.16674
 Alpha virt. eigenvalues --    0.37156   0.84326   0.89161   0.89161   0.89329
 Alpha virt. eigenvalues --    0.92233   0.92963   0.92963   0.98092   0.98092
 Alpha virt. eigenvalues --    1.06397   1.06397   1.11643   1.12114   1.37487

 Mulliken charges and spin densities:
               1          2
     1  O   -0.150010   1.368786
     2  O   -0.349990   1.131214
     3  O   -0.349990   1.131214
     4  O   -0.150010   1.368786
 Sum of Mulliken charges =  -1.00000   5.00000

 Dipole moment (field-independent basis, Debye):
    X=             -0.0000    Y=              0.0000    Z=              0.0000  Tot=              0.0000
 Quadrupole moment (field-independent basis, Debye-Ang):
   XX=            -22.1965   YY=            -22.1965   ZZ=            -53.0675
   XY=             -0.0000   XZ=              0.0000   YZ=             -0.0000

 6\MP4SDQ=-300.0186176\CCSD=-300.004536\CCSD(T)=-300.0569249\RMSD=3.436
 Normal termination of Gaussian 16 at Sun Jan 15 02:59:16 2023.
