 Gaussian 16, Revision A.03,
 Gaussian 16:  ES64L-G16RevA.03 25-Dec-2016

 ---------------------------------------------------------------
 #p ROCCSD(T)/cc-pVTZ Guess=Read SCF=(VeryTight,CDIIS,VShift=10)
 ---------------------------------------------------------------

 --------
 O2_O2_64
 --------
 Symbolic Z-matrix:
 Charge = -1 Multiplicity = 6

                         Standard orientation:
 ---------------------------------------------------------------------
 Center     Atomic      Atomic             Coordinates (Angstroms)
 Number     Number       Type             X           Y           Z
 ---------------------------------------------------------------------
      1          8           0        0.000000    0.000000    1.245650
      2          8           0        0.000000    0.000000    2.598030
      3          8           0        0.000000    0.000000   -2.598030
      4          8           0        0.000000    0.000000   -1.245650
 ---------------------------------------------------------------------

 SCF Done:  E(ROHF) =  -299.007171753     A.U. after   14 cycles
 E2 =    -0.1076685898D+01 EUMP2 =    -0.30008385765079D+03
 CCSD(T)
 CCSD(T)= -0.30005693184D+03

 The electronic state is 6-SGG.
 Alpha  occ. eigenvalues --  -20.48690 -20.48687 -20.44524 -20.44524  -1.34094
 Alpha  occ. eigenvalues --   -1.33776  -0.98693  -0.96952  -0.51206  -0.50378
 Alpha  occ. eigenvalues --   -0.50378  -0.49791  -0.49791  -0.46195  -0.30367
 Alpha  occ. eigenvalues --   -0.30367  -0.29545  -0.29545   0.16193
 Alpha virt. eigenvalues --    0.39204   0.88538   0.88809   0.88809   0.91748
 Alpha virt. eigenvalues --    0.93908   0.93908   0.94882   0.97967   0.97967
 Alpha virt. eigenvalues --    1.10176   1.10176   1.12103   1.12862   1.50301

 Mulliken charges and spin densities:
               1          2
     1  O   -0.147270   1.336121
     2  O   -0.352730   1.163879
     3  O   -0.352730   1.163879
     4  O   -0.147270   1.336121
 Sum of Mulliken charges =  -1.00000   5.00000

 Dipole moment (field-independent basis, Debye):
    X=             -0.0000    Y=             -0.0000    Z=             -0.0000  Tot=              0.0000
 Quadrupole moment (field-independent basis, Debye-Ang):
   XX=            -22.1970   YY=            -22.1970   ZZ=            -49.8523
   XY=             -0.0000   XZ=              0.0000   YZ=             -0.0000

 MP4SDQ=-300.0181494\CCSD=-300.0041776\CCSD(T)=-300.0569318\RMSD=2.521e
 Normal termination of Gaussian 16 at Sun Jan 15 01:52:48 2023.
