 Gaussian 16, Revision A.03,
 Gaussian 16:  ES64L-G16RevA.03 25-Dec-2016

 ---------------------------------------------------------------
 #p ROCCSD(T)/cc-pVTZ Guess=Read SCF=(VeryTight,CDIIS,VShift=10)
 ---------------------------------------------------------------

 ---------
 O2_O2_293
 ---------
 Symbolic Z-matrix:
 Charge = -1 Multiplicity = 6

                         Standard orientation:
 ---------------------------------------------------------------------
 Center     Atomic      Atomic             Coordinates (Angstroms)
 Number     Number       Type             X           Y           Z
 ---------------------------------------------------------------------
      1          8           0        0.000000    0.000000    2.866808
      2          8           0        0.000000    0.000000    4.219188
      3          8           0        0.000000    0.000000   -4.219188
      4          8           0        0.000000    0.000000   -2.866808
 ---------------------------------------------------------------------

 SCF Done:  E(ROHF) =  -298.982386682     A.U. after    9 cycles
 E2 =    -0.1078843147D+01 EUMP2 =    -0.30006122982865D+03
 CCSD(T)
 CCSD(T)= -0.30003050312D+03

 The electronic state is 6-SGG.
 Alpha  occ. eigenvalues --  -20.50693 -20.50692 -20.48994 -20.48994  -1.37080
 Alpha  occ. eigenvalues --   -1.37080  -1.01188  -1.01009  -0.53223  -0.53223
 Alpha  occ. eigenvalues --   -0.53223  -0.53223  -0.52525  -0.52355  -0.33349
 Alpha  occ. eigenvalues --   -0.33349  -0.33348  -0.33348   0.19330
 Alpha virt. eigenvalues --    0.26981   0.84722   0.84854   0.89316   0.89316
 Alpha virt. eigenvalues --    0.89319   0.89319   0.93899   0.94120   0.98592
 Alpha virt. eigenvalues --    0.98592   0.98606   0.98606   1.09657   1.09659

 Mulliken charges and spin densities:
               1          2
     1  O   -0.207935   1.298963
     2  O   -0.292065   1.201037
     3  O   -0.292065   1.201037
     4  O   -0.207935   1.298963
 Sum of Mulliken charges =  -1.00000   5.00000

 Dipole moment (field-independent basis, Debye):
    X=             -0.0000    Y=              0.0000    Z=             -0.0000  Tot=              0.0000
 Quadrupole moment (field-independent basis, Debye-Ang):
   XX=            -22.1617   YY=            -22.1617   ZZ=            -91.7904
   XY=             -0.0000   XZ=              0.0000   YZ=             -0.0000

 P4SDQ=-299.9905336\CCSD=-299.9782318\CCSD(T)=-300.0305031\RMSD=6.753e-
 Normal termination of Gaussian 16 at Mon Jan 16 05:21:59 2023.
