 Gaussian 16, Revision A.03,
 Gaussian 16:  ES64L-G16RevA.03 25-Dec-2016

 ---------------------------------------------------------------
 #p ROCCSD(T)/cc-pVTZ Guess=Read SCF=(VeryTight,CDIIS,VShift=10)
 ---------------------------------------------------------------

 ---------
 O2_O2_208
 ---------
 Symbolic Z-matrix:
 Charge = -1 Multiplicity = 6

                         Standard orientation:
 ---------------------------------------------------------------------
 Center     Atomic      Atomic             Coordinates (Angstroms)
 Number     Number       Type             X           Y           Z
 ---------------------------------------------------------------------
      1          8           0        0.000000    0.000000    2.265068
      2          8           0        0.000000    0.000000    3.617448
      3          8           0        0.000000    0.000000   -3.617448
      4          8           0        0.000000    0.000000   -2.265068
 ---------------------------------------------------------------------

 SCF Done:  E(ROHF) =  -298.986036343     A.U. after   16 cycles
 E2 =    -0.1077192978D+01 EUMP2 =    -0.30006322932130D+03
 CCSD(T)
 CCSD(T)= -0.30003394329D+03

 The electronic state is 6-SGG.
 Alpha  occ. eigenvalues --  -20.50483 -20.50482 -20.48020 -20.48019  -1.36428
 Alpha  occ. eigenvalues --   -1.36426  -1.00480  -1.00291  -0.52617  -0.52617
 Alpha  occ. eigenvalues --   -0.52613  -0.52613  -0.51809  -0.51442  -0.32654
 Alpha  occ. eigenvalues --   -0.32654  -0.32647  -0.32647   0.19044
 Alpha virt. eigenvalues --    0.29180   0.83789   0.87297   0.89960   0.89960
 Alpha virt. eigenvalues --    0.90053   0.90053   0.93781   0.96376   0.99228
 Alpha virt. eigenvalues --    0.99228   0.99465   0.99465   1.10340   1.10341

 Mulliken charges and spin densities:
               1          2
     1  O   -0.191453   1.319093
     2  O   -0.308547   1.180907
     3  O   -0.308547   1.180907
     4  O   -0.191453   1.319093
 Sum of Mulliken charges =  -1.00000   5.00000

 Dipole moment (field-independent basis, Debye):
    X=             -0.0000    Y=              0.0000    Z=             -0.0000  Tot=              0.0000
 Quadrupole moment (field-independent basis, Debye-Ang):
   XX=            -22.1713   YY=            -22.1713   ZZ=            -73.4900
   XY=             -0.0000   XZ=              0.0000   YZ=             -0.0000

 93\MP4SDQ=-299.9943369\CCSD=-299.9817321\CCSD(T)=-300.0339433\RMSD=8.0
 Normal termination of Gaussian 16 at Sun Jan 15 08:15:34 2023.
