 Gaussian 16, Revision A.03,
 Gaussian 16:  ES64L-G16RevA.03 25-Dec-2016

 ---------------------------------------------------------------
 #p ROCCSD(T)/cc-pVTZ Guess=Read SCF=(VeryTight,CDIIS,VShift=10)
 ---------------------------------------------------------------

 --------
 O2_O2_25
 --------
 Symbolic Z-matrix:
 Charge = -2 Multiplicity = 1

                         Standard orientation:
 ---------------------------------------------------------------------
 Center     Atomic      Atomic             Coordinates (Angstroms)
 Number     Number       Type             X           Y           Z
 ---------------------------------------------------------------------
      1          8           0        0.000000    0.000000    0.969558
      2          8           0        0.000000    0.000000    2.321938
      3          8           0        0.000000    0.000000   -2.321938
      4          8           0        0.000000    0.000000   -0.969558
 ---------------------------------------------------------------------

 SCF Done:  E(ROHF) =  -298.902443181     A.U. after    9 cycles
 E2 =    -0.1111481401D+01 EUMP2 =    -0.30001392458193D+03
 CCSD(T)
 CCSD(T)= -0.30003597021D+03

 Unable to determine electronic state:  an orbital has unidentified symmetry.
 Alpha  occ. eigenvalues --  -20.16678 -20.16675 -20.10413 -20.10413  -0.98010
 Alpha  occ. eigenvalues --   -0.96202  -0.62686  -0.55370  -0.17469  -0.16796
 Alpha  occ. eigenvalues --   -0.14363  -0.10561  -0.07026  -0.05457   0.04931
 Alpha  occ. eigenvalues --    0.08192   0.18742
 Alpha virt. eigenvalues --    0.43477   0.79747   0.87912   1.17098   1.17963
 Alpha virt. eigenvalues --    1.18172   1.19936   1.22449   1.23256   1.26325
 Alpha virt. eigenvalues --    1.27822   1.39129   1.39519   1.42525   1.44033

 Mulliken charges and spin densities:
               1          2
     1  O   -0.281733   0.000000
     2  O   -0.718267   0.000000
     3  O   -0.718267   0.000000
     4  O   -0.281733   0.000000
 Sum of Mulliken charges =  -2.00000   0.00000

 Dipole moment (field-independent basis, Debye):
    X=             -0.0000    Y=              0.0000    Z=              0.0000  Tot=              0.0000
 Quadrupole moment (field-independent basis, Debye-Ang):
   XX=            -24.4961   YY=            -25.6792   ZZ=            -66.1240
   XY=              0.0000   XZ=              0.0000   YZ=              0.0000

 CCSD(T)/cc-pVTZ Guess=Read SCF=(VeryTight,CDIIS,VShift=10)\\O2_O2_25\\
 295\CCSD=-299.9528468\CCSD(T)=-300.0359702\RMSD=9.250e-09\PG=D*H [C*(O
 Normal termination of Gaussian 16 at Sat Jan 14 17:49:11 2023.
