 Gaussian 16, Revision A.03,
 Gaussian 16:  ES64L-G16RevA.03 25-Dec-2016

 ---------------------------------------------------------------
 #p ROCCSD(T)/cc-pVTZ Guess=Read SCF=(VeryTight,CDIIS,VShift=10)
 ---------------------------------------------------------------

 ---------
 O2_O2_194
 ---------
 Symbolic Z-matrix:
 Charge = -2 Multiplicity = 1

                         Standard orientation:
 ---------------------------------------------------------------------
 Center     Atomic      Atomic             Coordinates (Angstroms)
 Number     Number       Type             X           Y           Z
 ---------------------------------------------------------------------
      1          8           0        0.000000    0.000000    2.165958
      2          8           0        0.000000    0.000000    3.518338
      3          8           0        0.000000    0.000000   -3.518338
      4          8           0        0.000000    0.000000   -2.165958
 ---------------------------------------------------------------------

 SCF Done:  E(ROHF) =  -298.909817971     A.U. after    8 cycles
 E2 =    -0.1323392585D+01 EUMP2 =    -0.30023321055580D+03
 CCSD(T)
 CCSD(T)= -0.30014600098D+03

 Unable to determine electronic state:  an orbital has unidentified symmetry.
 Alpha  occ. eigenvalues --  -20.20333 -20.20333 -20.19104 -20.19104  -1.02802
 Alpha  occ. eigenvalues --   -1.02793  -0.64803  -0.64731  -0.21241  -0.21232
 Alpha  occ. eigenvalues --   -0.18546  -0.18428  -0.14789  -0.14471   0.00319
 Alpha  occ. eigenvalues --    0.00341   0.19542
 Alpha virt. eigenvalues --    0.29372   0.72712   0.75102   1.11576   1.14233
 Alpha virt. eigenvalues --    1.15168   1.15288   1.16160   1.16275   1.16556
 Alpha virt. eigenvalues --    1.21623   1.23599   1.24022   1.25089   1.25505

 Mulliken charges and spin densities:
               1          2
     1  O   -0.438689  -0.000000
     2  O   -0.561311  -0.000000
     3  O   -0.561311  -0.000000
     4  O   -0.438689  -0.000000
 Sum of Mulliken charges =  -2.00000  -0.00000

 Dipole moment (field-independent basis, Debye):
    X=             -0.0000    Y=              0.0000    Z=             -0.0000  Tot=              0.0000
 Quadrupole moment (field-independent basis, Debye-Ang):
   XX=            -24.2403   YY=            -25.6654   ZZ=           -113.2747
   XY=              0.0000   XZ=              0.0000   YZ=              0.0000

 CCSD(T)/cc-pVTZ Guess=Read SCF=(VeryTight,CDIIS,VShift=10)\\O2_O2_194\
 73\CCSD=-300.0090678\CCSD(T)=-300.146001\RMSD=3.431e-09\PG=D*H [C*(O1O
 Normal termination of Gaussian 16 at Sat Jan 14 21:25:05 2023.
