 Gaussian 16, Revision A.03,
 Gaussian 16:  ES64L-G16RevA.03 25-Dec-2016

 -------------------------------------
 #p CCSD(T)/cc-pVTZ Guess=Read SCF=XQC
 -------------------------------------

 ---------
 O2_O2_147
 ---------
 Symbolic Z-matrix:
 Charge = -2 Multiplicity = 1

                         Standard orientation:
 ---------------------------------------------------------------------
 Center     Atomic      Atomic             Coordinates (Angstroms)
 Number     Number       Type             X           Y           Z
 ---------------------------------------------------------------------
      1          8           0        0.000000    0.000000    1.833232
      2          8           0        0.000000    0.000000    3.185612
      3          8           0        0.000000    0.000000   -3.185612
      4          8           0        0.000000    0.000000   -1.833232
 ---------------------------------------------------------------------

 SCF Done:  E(RHF) =  -298.906014281     A.U. after    8 cycles
 E2 =    -0.1271422262D+01 EUMP2 =    -0.30017743654270D+03
 CCSD(T)
 CCSD(T)= -0.30012928909D+03

 Unable to determine electronic state:  an orbital has unidentified symmetry.
 Alpha  occ. eigenvalues --  -20.19367 -20.19367 -20.17671 -20.17671  -1.01615
 Alpha  occ. eigenvalues --   -1.01588  -0.63619  -0.63425  -0.20065  -0.20020
 Alpha  occ. eigenvalues --   -0.17445  -0.16970  -0.13682  -0.13179   0.01492
 Alpha  occ. eigenvalues --    0.01606   0.19975
 Alpha virt. eigenvalues --    0.31461   0.72139   0.78055   1.08806   1.15368
 Alpha virt. eigenvalues --    1.16042   1.16517   1.16679   1.17058   1.17652
 Alpha virt. eigenvalues --    1.23975   1.25485   1.26248   1.27733   1.33562

 Mulliken charges:
               1
     1  O   -0.420927
     2  O   -0.579073
     3  O   -0.579073
     4  O   -0.420927
 Sum of Mulliken charges =  -2.00000

 Dipole moment (field-independent basis, Debye):
    X=             -0.0000    Y=             -0.0000    Z=              0.0000  Tot=              0.0000
 Quadrupole moment (field-independent basis, Debye-Ang):
   XX=            -24.2654   YY=            -25.6731   ZZ=            -96.8323
   XY=              0.0000   XZ=              0.0000   YZ=              0.0000

 Normal termination of Gaussian 16 at Wed Jan  4 20:34:59 2023.
