 Gaussian 16, Revision A.03,
 Gaussian 16:  ES64L-G16RevA.03 25-Dec-2016

 ---------------------------------------------------------------
 #p ROCCSD(T)/cc-pVTZ Guess=Read SCF=(VeryTight,CDIIS,VShift=10)
 ---------------------------------------------------------------

 ---------
 O2_O2_279
 ---------
 Symbolic Z-matrix:
 Charge = -2 Multiplicity = 1

                         Standard orientation:
 ---------------------------------------------------------------------
 Center     Atomic      Atomic             Coordinates (Angstroms)
 Number     Number       Type             X           Y           Z
 ---------------------------------------------------------------------
      1          8           0        0.000000    0.000000    2.767698
      2          8           0        0.000000    0.000000    4.120078
      3          8           0        0.000000    0.000000   -4.120078
      4          8           0        0.000000    0.000000   -2.767698
 ---------------------------------------------------------------------

 SCF Done:  E(ROHF) =  -298.917126594     A.U. after    8 cycles
 E2 =    -0.1410958692D+01 EUMP2 =    -0.30032808528565D+03
 CCSD(T)
 CCSD(T)= -0.30016784007D+03

 Unable to determine electronic state:  an orbital has unidentified symmetry.
 Alpha  occ. eigenvalues --  -20.21788 -20.21788 -20.20978 -20.20978  -1.04444
 Alpha  occ. eigenvalues --   -1.04442  -0.66467  -0.66441  -0.22880  -0.22880
 Alpha  occ. eigenvalues --   -0.20208  -0.20202  -0.16351  -0.16181  -0.01336
 Alpha  occ. eigenvalues --   -0.01336   0.18806
 Alpha virt. eigenvalues --    0.26740   0.72106   0.72213   1.11695   1.11825
 Alpha virt. eigenvalues --    1.13627   1.13629   1.14620   1.14623   1.16269
 Alpha virt. eigenvalues --    1.16412   1.22125   1.22132   1.23606   1.23613

 Mulliken charges and spin densities:
               1          2
     1  O   -0.458371   0.000000
     2  O   -0.541629   0.000000
     3  O   -0.541629   0.000000
     4  O   -0.458371   0.000000
 Sum of Mulliken charges =  -2.00000   0.00000

 Dipole moment (field-independent basis, Debye):
    X=             -0.0000    Y=              0.0000    Z=              0.0000  Tot=              0.0000
 Quadrupole moment (field-independent basis, Debye-Ang):
   XX=            -24.2288   YY=            -25.6582   ZZ=           -148.7022
   XY=              0.0000   XZ=              0.0000   YZ=              0.0000

 CCSD(T)/cc-pVTZ Guess=Read SCF=(VeryTight,CDIIS,VShift=10)\\O2_O2_279\
 354\CCSD=-300.0239095\CCSD(T)=-300.1678401\RMSD=3.207e-09\PG=D*H [C*(O
 Normal termination of Gaussian 16 at Sat Jan 14 23:18:58 2023.
