 Gaussian 16, Revision A.03,
 Gaussian 16:  ES64L-G16RevA.03 25-Dec-2016

 ---------------------------------------------------------------
 #p ROCCSD(T)/cc-pVTZ Guess=Read SCF=(VeryTight,CDIIS,VShift=10)
 ---------------------------------------------------------------

 ---------
 O2_O2_210
 ---------
 Symbolic Z-matrix:
 Charge = -2 Multiplicity = 1

                         Standard orientation:
 ---------------------------------------------------------------------
 Center     Atomic      Atomic             Coordinates (Angstroms)
 Number     Number       Type             X           Y           Z
 ---------------------------------------------------------------------
      1          8           0        0.000000    0.000000    2.279227
      2          8           0        0.000000    0.000000    3.631607
      3          8           0        0.000000    0.000000   -3.631607
      4          8           0        0.000000    0.000000   -2.279227
 ---------------------------------------------------------------------

 SCF Done:  E(ROHF) =  -298.911274689     A.U. after    8 cycles
 E2 =    -0.1340290714D+01 EUMP2 =    -0.30025156540333D+03
 CCSD(T)
 CCSD(T)= -0.30015080346D+03

 Unable to determine electronic state:  an orbital has unidentified symmetry.
 Alpha  occ. eigenvalues --  -20.20641 -20.20640 -20.19517 -20.19517  -1.03158
 Alpha  occ. eigenvalues --   -1.03151  -0.65162  -0.65107  -0.21595  -0.21590
 Alpha  occ. eigenvalues --   -0.18898  -0.18827  -0.15124  -0.14846  -0.00038
 Alpha  occ. eigenvalues --   -0.00026   0.19391
 Alpha virt. eigenvalues --    0.28786   0.72788   0.74306   1.12021   1.13712
 Alpha virt. eigenvalues --    1.14851   1.14913   1.15842   1.15902   1.16715
 Alpha virt. eigenvalues --    1.19659   1.23334   1.23551   1.24821   1.25034

 Mulliken charges and spin densities:
               1          2
     1  O   -0.443327   0.000000
     2  O   -0.556673   0.000000
     3  O   -0.556673   0.000000
     4  O   -0.443327   0.000000
 Sum of Mulliken charges =  -2.00000   0.00000

 Dipole moment (field-independent basis, Debye):
    X=             -0.0000    Y=             -0.0000    Z=              0.0000  Tot=              0.0000
 Quadrupole moment (field-independent basis, Debye-Ang):
   XX=            -24.2364   YY=            -25.6636   ZZ=           -119.3873
   XY=              0.0000   XZ=              0.0000   YZ=              0.0000

 CCSD(T)/cc-pVTZ Guess=Read SCF=(VeryTight,CDIIS,VShift=10)\\O2_O2_210\
 5243\CCSD=-300.0122373\CCSD(T)=-300.1508035\RMSD=3.869e-09\PG=D*H [C*(
 Normal termination of Gaussian 16 at Sat Jan 14 21:45:40 2023.
