 Gaussian 16, Revision A.03,
 Gaussian 16:  ES64L-G16RevA.03 25-Dec-2016

 ---------------------------------------------------------------
 #p ROCCSD(T)/cc-pVTZ Guess=Read SCF=(VeryTight,CDIIS,VShift=10)
 ---------------------------------------------------------------

 ---------
 O2_O2_281
 ---------
 Symbolic Z-matrix:
 Charge = -2 Multiplicity = 1

                         Standard orientation:
 ---------------------------------------------------------------------
 Center     Atomic      Atomic             Coordinates (Angstroms)
 Number     Number       Type             X           Y           Z
 ---------------------------------------------------------------------
      1          8           0        0.000000    0.000000    2.781857
      2          8           0        0.000000    0.000000    4.134237
      3          8           0        0.000000    0.000000   -4.134237
      4          8           0        0.000000    0.000000   -2.781857
 ---------------------------------------------------------------------

 SCF Done:  E(ROHF) =  -298.917278707     A.U. after    8 cycles
 E2 =    -0.1412976680D+01 EUMP2 =    -0.30033025538682D+03
 CCSD(T)
 CCSD(T)= -0.30016825752D+03

 Unable to determine electronic state:  an orbital has unidentified symmetry.
 Alpha  occ. eigenvalues --  -20.21817 -20.21817 -20.21014 -20.21014  -1.04477
 Alpha  occ. eigenvalues --   -1.04474  -0.66499  -0.66474  -0.22912  -0.22912
 Alpha  occ. eigenvalues --   -0.20241  -0.20235  -0.16382  -0.16214  -0.01369
 Alpha  occ. eigenvalues --   -0.01368   0.18791
 Alpha virt. eigenvalues --    0.26690   0.72075   0.72173   1.11667   1.11786
 Alpha virt. eigenvalues --    1.13596   1.13598   1.14589   1.14592   1.16238
 Alpha virt. eigenvalues --    1.16367   1.22092   1.22099   1.23573   1.23580

 Mulliken charges and spin densities:
               1          2
     1  O   -0.458715   0.000000
     2  O   -0.541285   0.000000
     3  O   -0.541285   0.000000
     4  O   -0.458715   0.000000
 Sum of Mulliken charges =  -2.00000   0.00000

 Dipole moment (field-independent basis, Debye):
    X=             -0.0000    Y=              0.0000    Z=              0.0000  Tot=              0.0000
 Quadrupole moment (field-independent basis, Debye-Ang):
   XX=            -24.2287   YY=            -25.6581   ZZ=           -149.6232
   XY=              0.0000   XZ=              0.0000   YZ=              0.0000

 CCSD(T)/cc-pVTZ Guess=Read SCF=(VeryTight,CDIIS,VShift=10)\\O2_O2_281\
 1413\CCSD=-300.0242012\CCSD(T)=-300.1682575\RMSD=3.167e-09\PG=D*H [C*(
 Normal termination of Gaussian 16 at Sat Jan 14 23:21:37 2023.
