 Gaussian 16, Revision A.03,
 Gaussian 16:  ES64L-G16RevA.03 25-Dec-2016

 -------------------------------------
 #p CCSD(T)/cc-pVTZ Guess=Read SCF=XQC
 -------------------------------------

 ---------
 O2_O2_136
 ---------
 Symbolic Z-matrix:
 Charge = -2 Multiplicity = 1

                         Standard orientation:
 ---------------------------------------------------------------------
 Center     Atomic      Atomic             Coordinates (Angstroms)
 Number     Number       Type             X           Y           Z
 ---------------------------------------------------------------------
      1          8           0        0.000000    0.000000    1.755359
      2          8           0        0.000000    0.000000    3.107739
      3          8           0        0.000000    0.000000   -3.107739
      4          8           0        0.000000    0.000000   -1.755359
 ---------------------------------------------------------------------

 SCF Done:  E(RHF) =  -298.905393441     A.U. after    8 cycles
 E2 =    -0.1258539023D+01 EUMP2 =    -0.30016393246452D+03
 CCSD(T)
 CCSD(T)= -0.30012466566D+03

 Unable to determine electronic state:  an orbital has unidentified symmetry.
 Alpha  occ. eigenvalues --  -20.19134 -20.19134 -20.17277 -20.17277  -1.01305
 Alpha  occ. eigenvalues --   -1.01267  -0.63317  -0.63062  -0.19760  -0.19696
 Alpha  occ. eigenvalues --   -0.17185  -0.16543  -0.13397  -0.12827   0.01792
 Alpha  occ. eigenvalues --    0.01952   0.20063
 Alpha virt. eigenvalues --    0.32056   0.72215   0.78801   1.08545   1.15530
 Alpha virt. eigenvalues --    1.16193   1.16671   1.17081   1.17226   1.18049
 Alpha virt. eigenvalues --    1.23923   1.25437   1.27074   1.28559   1.36522

 Mulliken charges:
               1
     1  O   -0.415497
     2  O   -0.584503
     3  O   -0.584503
     4  O   -0.415497
 Sum of Mulliken charges =  -2.00000

 Dipole moment (field-independent basis, Debye):
    X=             -0.0000    Y=              0.0000    Z=              0.0000  Tot=              0.0000
 Quadrupole moment (field-independent basis, Debye-Ang):
   XX=            -24.2761   YY=            -25.6754   ZZ=            -93.3182
   XY=              0.0000   XZ=              0.0000   YZ=              0.0000

 Normal termination of Gaussian 16 at Wed Jan  4 20:28:38 2023.
