 Gaussian 16, Revision A.03,
 Gaussian 16:  ES64L-G16RevA.03 25-Dec-2016

 ---------------------------------------------------------------
 #p ROCCSD(T)/cc-pVTZ Guess=Read SCF=(VeryTight,CDIIS,VShift=10)
 ---------------------------------------------------------------

 ---------
 O2_O2_135
 ---------
 Symbolic Z-matrix:
 Charge = -2 Multiplicity = 1

                         Standard orientation:
 ---------------------------------------------------------------------
 Center     Atomic      Atomic             Coordinates (Angstroms)
 Number     Number       Type             X           Y           Z
 ---------------------------------------------------------------------
      1          8           0        0.000000    0.000000    1.748280
      2          8           0        0.000000    0.000000    3.100660
      3          8           0        0.000000    0.000000   -3.100660
      4          8           0        0.000000    0.000000   -1.748280
 ---------------------------------------------------------------------

 SCF Done:  E(ROHF) =  -298.905345576     A.U. after    9 cycles
 E2 =    -0.1257350577D+01 EUMP2 =    -0.30016269615331D+03
 CCSD(T)
 CCSD(T)= -0.30012422932D+03

 Unable to determine electronic state:  an orbital has unidentified symmetry.
 Alpha  occ. eigenvalues --  -20.19113 -20.19113 -20.17240 -20.17239  -1.01277
 Alpha  occ. eigenvalues --   -1.01237  -0.63290  -0.63027  -0.19732  -0.19665
 Alpha  occ. eigenvalues --   -0.17161  -0.16503  -0.13370  -0.12794   0.01820
 Alpha  occ. eigenvalues --    0.01985   0.20070
 Alpha virt. eigenvalues --    0.32112   0.72232   0.78869   1.08544   1.15543
 Alpha virt. eigenvalues --    1.16205   1.16688   1.17119   1.17240   1.18086
 Alpha virt. eigenvalues --    1.23916   1.25430   1.27157   1.28642   1.36625

 Mulliken charges and spin densities:
               1          2
     1  O   -0.414972  -0.000000
     2  O   -0.585028  -0.000000
     3  O   -0.585028  -0.000000
     4  O   -0.414972  -0.000000
 Sum of Mulliken charges =  -2.00000  -0.00000

 Dipole moment (field-independent basis, Debye):
    X=             -0.0000    Y=              0.0000    Z=             -0.0000  Tot=              0.0000
 Quadrupole moment (field-independent basis, Debye-Ang):
   XX=            -24.2772   YY=            -25.6756   ZZ=            -93.0052
   XY=              0.0000   XZ=              0.0000   YZ=              0.0000

 CCSD(T)/cc-pVTZ Guess=Read SCF=(VeryTight,CDIIS,VShift=10)\\O2_O2_135\
 71\CCSD=-299.9960179\CCSD(T)=-300.1242293\RMSD=1.418e-09\PG=D*H [C*(O1
 Normal termination of Gaussian 16 at Sat Jan 14 20:06:20 2023.
