 Gaussian 16, Revision A.03,
 Gaussian 16:  ES64L-G16RevA.03 25-Dec-2016

 ---------------------------------------------------------------
 #p ROCCSD(T)/cc-pVTZ Guess=Read SCF=(VeryTight,CDIIS,VShift=10)
 ---------------------------------------------------------------

 --------
 O2_O2_53
 --------
 Symbolic Z-matrix:
 Charge = -2 Multiplicity = 1

                         Standard orientation:
 ---------------------------------------------------------------------
 Center     Atomic      Atomic             Coordinates (Angstroms)
 Number     Number       Type             X           Y           Z
 ---------------------------------------------------------------------
      1          8           0        0.000000    0.000000    1.167778
      2          8           0        0.000000    0.000000    2.520158
      3          8           0        0.000000    0.000000   -2.520158
      4          8           0        0.000000    0.000000   -1.167778
 ---------------------------------------------------------------------

 SCF Done:  E(ROHF) =  -298.909132773     A.U. after    9 cycles
 E2 =    -0.1149064341D+01 EUMP2 =    -0.30005819711342D+03
 CCSD(T)
 CCSD(T)= -0.30007360039D+03

 Unable to determine electronic state:  an orbital has unidentified symmetry.
 Alpha  occ. eigenvalues --  -20.17408 -20.17406 -20.12962 -20.12962  -0.98637
 Alpha  occ. eigenvalues --   -0.98031  -0.61567  -0.58611  -0.17261  -0.16316
 Alpha  occ. eigenvalues --   -0.16305  -0.11062  -0.10597  -0.09093   0.04214
 Alpha  occ. eigenvalues --    0.05813   0.19848
 Alpha virt. eigenvalues --    0.39127   0.77846   0.84810   1.16185   1.16460
 Alpha virt. eigenvalues --    1.17792   1.18069   1.20834   1.21714   1.24308
 Alpha virt. eigenvalues --    1.25705   1.30618   1.38424   1.38872   1.39907

 Mulliken charges and spin densities:
               1          2
     1  O   -0.338568  -0.000000
     2  O   -0.661432  -0.000000
     3  O   -0.661432  -0.000000
     4  O   -0.338568  -0.000000
 Sum of Mulliken charges =  -2.00000  -0.00000

 Dipole moment (field-independent basis, Debye):
    X=             -0.0000    Y=              0.0000    Z=              0.0000  Tot=              0.0000
 Quadrupole moment (field-independent basis, Debye-Ang):
   XX=            -24.4494   YY=            -25.6994   ZZ=            -71.2314
   XY=              0.0000   XZ=              0.0000   YZ=              0.0000

 CCSD(T)/cc-pVTZ Guess=Read SCF=(VeryTight,CDIIS,VShift=10)\\O2_O2_53\\
 99\CCSD=-299.9740519\CCSD(T)=-300.0736004\RMSD=4.449e-09\PG=D*H [C*(O1
 Normal termination of Gaussian 16 at Sat Jan 14 18:23:35 2023.
