 Gaussian 16, Revision A.03,
 Gaussian 16:  ES64L-G16RevA.03 25-Dec-2016

 ---------------------------------------------------------------
 #p ROCCSD(T)/cc-pVTZ Guess=Read SCF=(VeryTight,CDIIS,VShift=10)
 ---------------------------------------------------------------

 ---------
 O2_O2_145
 ---------
 Symbolic Z-matrix:
 Charge = -2 Multiplicity = 1

                         Standard orientation:
 ---------------------------------------------------------------------
 Center     Atomic      Atomic             Coordinates (Angstroms)
 Number     Number       Type             X           Y           Z
 ---------------------------------------------------------------------
      1          8           0        0.000000    0.000000    1.819073
      2          8           0        0.000000    0.000000    3.171453
      3          8           0        0.000000    0.000000   -3.171453
      4          8           0        0.000000    0.000000   -1.819073
 ---------------------------------------------------------------------

 SCF Done:  E(ROHF) =  -298.905889648     A.U. after    8 cycles
 E2 =    -0.1269104780D+01 EUMP2 =    -0.30017499442725D+03
 CCSD(T)
 CCSD(T)= -0.30012847217D+03

 Unable to determine electronic state:  an orbital has unidentified symmetry.
 Alpha  occ. eigenvalues --  -20.19325 -20.19324 -20.17601 -20.17601  -1.01560
 Alpha  occ. eigenvalues --   -1.01531  -0.63564  -0.63361  -0.20010  -0.19963
 Alpha  occ. eigenvalues --   -0.17397  -0.16895  -0.13631  -0.13117   0.01546
 Alpha  occ. eigenvalues --    0.01667   0.19992
 Alpha virt. eigenvalues --    0.31565   0.72139   0.78191   1.08728   1.15401
 Alpha virt. eigenvalues --    1.16072   1.16541   1.16750   1.17091   1.17722
 Alpha virt. eigenvalues --    1.23970   1.25480   1.26387   1.27872   1.34261

 Mulliken charges and spin densities:
               1          2
     1  O   -0.419985   0.000000
     2  O   -0.580015   0.000000
     3  O   -0.580015   0.000000
     4  O   -0.419985   0.000000
 Sum of Mulliken charges =  -2.00000   0.00000

 Dipole moment (field-independent basis, Debye):
    X=             -0.0000    Y=              0.0000    Z=             -0.0000  Tot=              0.0000
 Quadrupole moment (field-independent basis, Debye-Ang):
   XX=            -24.2672   YY=            -25.6735   ZZ=            -96.1838
   XY=              0.0000   XZ=              0.0000   YZ=              0.0000

 CCSD(T)/cc-pVTZ Guess=Read SCF=(VeryTight,CDIIS,VShift=10)\\O2_O2_145\
 0161\CCSD=-299.9983609\CCSD(T)=-300.1284722\RMSD=8.734e-09\PG=D*H [C*(
 Normal termination of Gaussian 16 at Sat Jan 14 20:19:03 2023.
