 Gaussian 16, Revision A.03,
 Gaussian 16:  ES64L-G16RevA.03 25-Dec-2016

 ---------------------------------------------------------------
 #p ROCCSD(T)/cc-pVTZ Guess=Read SCF=(VeryTight,CDIIS,VShift=10)
 ---------------------------------------------------------------

 ---------
 O2_O2_213
 ---------
 Symbolic Z-matrix:
 Charge = -2 Multiplicity = 1

                         Standard orientation:
 ---------------------------------------------------------------------
 Center     Atomic      Atomic             Coordinates (Angstroms)
 Number     Number       Type             X           Y           Z
 ---------------------------------------------------------------------
      1          8           0        0.000000    0.000000    2.300464
      2          8           0        0.000000    0.000000    3.652845
      3          8           0        0.000000    0.000000   -3.652845
      4          8           0        0.000000    0.000000   -2.300464
 ---------------------------------------------------------------------

 SCF Done:  E(ROHF) =  -298.911547683     A.U. after    8 cycles
 E2 =    -0.1343428361D+01 EUMP2 =    -0.30025497604440D+03
 CCSD(T)
 CCSD(T)= -0.30015166253D+03

 Unable to determine electronic state:  an orbital has unidentified symmetry.
 Alpha  occ. eigenvalues --  -20.20697 -20.20696 -20.19591 -20.19591  -1.03222
 Alpha  occ. eigenvalues --   -1.03216  -0.65227  -0.65174  -0.21659  -0.21655
 Alpha  occ. eigenvalues --   -0.18962  -0.18898  -0.15185  -0.14913  -0.00102
 Alpha  occ. eigenvalues --   -0.00092   0.19363
 Alpha virt. eigenvalues --    0.28682   0.72789   0.74173   1.12067   1.13612
 Alpha virt. eigenvalues --    1.14793   1.14847   1.15784   1.15837   1.16738
 Alpha virt. eigenvalues --    1.19375   1.23282   1.23472   1.24767   1.24954

 Mulliken charges and spin densities:
               1          2
     1  O   -0.444138  -0.000000
     2  O   -0.555862  -0.000000
     3  O   -0.555862  -0.000000
     4  O   -0.444138  -0.000000
 Sum of Mulliken charges =  -2.00000  -0.00000

 Dipole moment (field-independent basis, Debye):
    X=             -0.0000    Y=              0.0000    Z=             -0.0000  Tot=              0.0000
 Quadrupole moment (field-independent basis, Debye-Ang):
   XX=            -24.2358   YY=            -25.6633   ZZ=           -120.5622
   XY=              0.0000   XZ=              0.0000   YZ=              0.0000

 CCSD(T)/cc-pVTZ Guess=Read SCF=(VeryTight,CDIIS,VShift=10)\\O2_O2_213\
 1\CCSD=-300.012812\CCSD(T)=-300.1516625\RMSD=3.964e-09\PG=D*H [C*(O1O1
 Normal termination of Gaussian 16 at Sat Jan 14 21:49:38 2023.
