 Gaussian 16, Revision A.03,
 Gaussian 16:  ES64L-G16RevA.03 25-Dec-2016

 ---------------------------------------------------------------
 #p ROCCSD(T)/cc-pVTZ Guess=Read SCF=(VeryTight,CDIIS,VShift=10)
 ---------------------------------------------------------------

 ---------
 O2_O2_104
 ---------
 Symbolic Z-matrix:
 Charge = -2 Multiplicity = 1

                         Standard orientation:
 ---------------------------------------------------------------------
 Center     Atomic      Atomic             Coordinates (Angstroms)
 Number     Number       Type             X           Y           Z
 ---------------------------------------------------------------------
      1          8           0        0.000000    0.000000    1.528822
      2          8           0        0.000000    0.000000    2.881202
      3          8           0        0.000000    0.000000   -2.881202
      4          8           0        0.000000    0.000000   -1.528822
 ---------------------------------------------------------------------

 SCF Done:  E(ROHF) =  -298.904871271     A.U. after    9 cycles
 E2 =    -0.1218884554D+01 EUMP2 =    -0.30012375582474D+03
 CCSD(T)
 CCSD(T)= -0.30010912395D+03

 Unable to determine electronic state:  an orbital has unidentified symmetry.
 Alpha  occ. eigenvalues --  -20.18463 -20.18462 -20.15952 -20.15952  -1.00331
 Alpha  occ. eigenvalues --   -1.00229  -0.62430  -0.61811  -0.18815  -0.18632
 Alpha  occ. eigenvalues --   -0.16502  -0.15001  -0.12514  -0.11656   0.02708
 Alpha  occ. eigenvalues --    0.03119   0.20237
 Alpha virt. eigenvalues --    0.34125   0.73682   0.80953   1.11081   1.15767
 Alpha virt. eigenvalues --    1.16343   1.17422   1.17496   1.18400   1.19347
 Alpha virt. eigenvalues --    1.23582   1.25082   1.30480   1.31963   1.37758

 Mulliken charges and spin densities:
               1          2
     1  O   -0.395316   0.000000
     2  O   -0.604684   0.000000
     3  O   -0.604684   0.000000
     4  O   -0.395316   0.000000
 Sum of Mulliken charges =  -2.00000   0.00000

 Dipole moment (field-independent basis, Debye):
    X=             -0.0000    Y=              0.0000    Z=              0.0000  Tot=              0.0000
 Quadrupole moment (field-independent basis, Debye-Ang):
   XX=            -24.3230   YY=            -25.6838   ZZ=            -83.8391
   XY=              0.0000   XZ=              0.0000   YZ=              0.0000

 CCSD(T)/cc-pVTZ Guess=Read SCF=(VeryTight,CDIIS,VShift=10)\\O2_O2_104\
 4317\CCSD=-299.9885364\CCSD(T)=-300.1091239\RMSD=2.159e-09\PG=D*H [C*(
 Normal termination of Gaussian 16 at Sat Jan 14 19:27:21 2023.
