 Gaussian 16, Revision A.03,
 Gaussian 16:  ES64L-G16RevA.03 25-Dec-2016

 -------------------------------------
 #p CCSD(T)/cc-pVTZ Guess=Read SCF=XQC
 -------------------------------------

 ---------
 O2_O2_187
 ---------
 Symbolic Z-matrix:
 Charge = -2 Multiplicity = 1

                         Standard orientation:
 ---------------------------------------------------------------------
 Center     Atomic      Atomic             Coordinates (Angstroms)
 Number     Number       Type             X           Y           Z
 ---------------------------------------------------------------------
      1          8           0        0.000000    0.000000    2.116403
      2          8           0        0.000000    0.000000    3.468783
      3          8           0        0.000000    0.000000   -3.468783
      4          8           0        0.000000    0.000000   -2.116403
 ---------------------------------------------------------------------

 SCF Done:  E(RHF) =  -298.909188598     A.U. after    8 cycles
 E2 =    -0.1315898707D+01 EUMP2 =    -0.30022508730506D+03
 CCSD(T)
 CCSD(T)= -0.30014377470D+03

 Unable to determine electronic state:  an orbital has unidentified symmetry.
 Alpha  occ. eigenvalues --  -20.20195 -20.20194 -20.18913 -20.18913  -1.02639
 Alpha  occ. eigenvalues --   -1.02629  -0.64638  -0.64557  -0.21078  -0.21068
 Alpha  occ. eigenvalues --   -0.18388  -0.18240  -0.14635  -0.14297   0.00483
 Alpha  occ. eigenvalues --    0.00511   0.19608
 Alpha virt. eigenvalues --    0.29645   0.72639   0.75492   1.11258   1.14445
 Alpha virt. eigenvalues --    1.15308   1.15466   1.16301   1.16451   1.16487
 Alpha virt. eigenvalues --    1.22767   1.23702   1.24260   1.25194   1.25744

 Mulliken charges:
               1
     1  O   -0.436476
     2  O   -0.563524
     3  O   -0.563524
     4  O   -0.436476
 Sum of Mulliken charges =  -2.00000

 Dipole moment (field-independent basis, Debye):
    X=             -0.0000    Y=             -0.0000    Z=              0.0000  Tot=              0.0000
 Quadrupole moment (field-independent basis, Debye-Ang):
   XX=            -24.2426   YY=            -25.6664   ZZ=           -110.6819
   XY=              0.0000   XZ=              0.0000   YZ=              0.0000

 Normal termination of Gaussian 16 at Wed Jan  4 20:58:04 2023.
