 Gaussian 16, Revision A.03,
 Gaussian 16:  ES64L-G16RevA.03 25-Dec-2016

 -------------------------------------
 #p CCSD(T)/cc-pVTZ Guess=Read SCF=XQC
 -------------------------------------

 ---------
 O2_O2_135
 ---------
 Symbolic Z-matrix:
 Charge = -2 Multiplicity = 1

                         Standard orientation:
 ---------------------------------------------------------------------
 Center     Atomic      Atomic             Coordinates (Angstroms)
 Number     Number       Type             X           Y           Z
 ---------------------------------------------------------------------
      1          8           0        0.000000    0.000000    1.748280
      2          8           0        0.000000    0.000000    3.100660
      3          8           0        0.000000    0.000000   -3.100660
      4          8           0        0.000000    0.000000   -1.748280
 ---------------------------------------------------------------------

 SCF Done:  E(RHF) =  -298.905345576     A.U. after    8 cycles
 E2 =    -0.1257350560D+01 EUMP2 =    -0.30016269613539D+03
 CCSD(T)
 CCSD(T)= -0.30012422908D+03

 Unable to determine electronic state:  an orbital has unidentified symmetry.
 Alpha  occ. eigenvalues --  -20.19113 -20.19113 -20.17240 -20.17239  -1.01277
 Alpha  occ. eigenvalues --   -1.01237  -0.63290  -0.63027  -0.19732  -0.19665
 Alpha  occ. eigenvalues --   -0.17161  -0.16503  -0.13370  -0.12794   0.01820
 Alpha  occ. eigenvalues --    0.01985   0.20070
 Alpha virt. eigenvalues --    0.32112   0.72232   0.78869   1.08544   1.15543
 Alpha virt. eigenvalues --    1.16205   1.16688   1.17119   1.17240   1.18086
 Alpha virt. eigenvalues --    1.23916   1.25430   1.27157   1.28642   1.36625

 Mulliken charges:
               1
     1  O   -0.414972
     2  O   -0.585028
     3  O   -0.585028
     4  O   -0.414972
 Sum of Mulliken charges =  -2.00000

 Dipole moment (field-independent basis, Debye):
    X=             -0.0000    Y=              0.0000    Z=             -0.0000  Tot=              0.0000
 Quadrupole moment (field-independent basis, Debye-Ang):
   XX=            -24.2772   YY=            -25.6756   ZZ=            -93.0052
   XY=              0.0000   XZ=              0.0000   YZ=              0.0000

 Normal termination of Gaussian 16 at Wed Jan  4 20:28:03 2023.
