 Gaussian 16, Revision A.03,
 Gaussian 16:  ES64L-G16RevA.03 25-Dec-2016

 -------------------------------------
 #p CCSD(T)/cc-pVTZ Guess=Read SCF=XQC
 -------------------------------------

 ---------
 O2_O2_111
 ---------
 Symbolic Z-matrix:
 Charge = -2 Multiplicity = 1

                         Standard orientation:
 ---------------------------------------------------------------------
 Center     Atomic      Atomic             Coordinates (Angstroms)
 Number     Number       Type             X           Y           Z
 ---------------------------------------------------------------------
      1          8           0        0.000000    0.000000    1.578377
      2          8           0        0.000000    0.000000    2.930757
      3          8           0        0.000000    0.000000   -2.930757
      4          8           0        0.000000    0.000000   -1.578377
 ---------------------------------------------------------------------

 SCF Done:  E(RHF) =  -298.904775856     A.U. after    9 cycles
 E2 =    -0.1227858457D+01 EUMP2 =    -0.30013263431233D+03
 CCSD(T)
 CCSD(T)= -0.30011282595D+03

 Unable to determine electronic state:  an orbital has unidentified symmetry.
 Alpha  occ. eigenvalues --  -20.18608 -20.18607 -20.16268 -20.16268  -1.00553
 Alpha  occ. eigenvalues --   -1.00472  -0.62621  -0.62115  -0.19029  -0.18882
 Alpha  occ. eigenvalues --   -0.16635  -0.15386  -0.12713  -0.11934   0.02503
 Alpha  occ. eigenvalues --    0.02840   0.20214
 Alpha virt. eigenvalues --    0.33622   0.73207   0.80483   1.10020   1.15743
 Alpha virt. eigenvalues --    1.16354   1.17215   1.17469   1.18095   1.19048
 Alpha virt. eigenvalues --    1.23656   1.25165   1.29597   1.31081   1.37573

 Mulliken charges:
               1
     1  O   -0.400418
     2  O   -0.599582
     3  O   -0.599582
     4  O   -0.400418
 Sum of Mulliken charges =  -2.00000

 Dipole moment (field-independent basis, Debye):
    X=             -0.0000    Y=              0.0000    Z=              0.0000  Tot=              0.0000
 Quadrupole moment (field-independent basis, Debye-Ang):
   XX=            -24.3105   YY=            -25.6817   ZZ=            -85.8168
   XY=              0.0000   XZ=              0.0000   YZ=              0.0000

 Normal termination of Gaussian 16 at Wed Jan  4 20:14:38 2023.
