 Gaussian 16, Revision A.03,
 Gaussian 16:  ES64L-G16RevA.03 25-Dec-2016

 -------------------------------------
 #p CCSD(T)/cc-pVTZ Guess=Read SCF=XQC
 -------------------------------------

 --------
 O2_O2_57
 --------
 Symbolic Z-matrix:
 Charge = -2 Multiplicity = 1

                         Standard orientation:
 ---------------------------------------------------------------------
 Center     Atomic      Atomic             Coordinates (Angstroms)
 Number     Number       Type             X           Y           Z
 ---------------------------------------------------------------------
      1          8           0        0.000000    0.000000    1.196095
      2          8           0        0.000000    0.000000    2.548475
      3          8           0        0.000000    0.000000   -2.548475
      4          8           0        0.000000    0.000000   -1.196095
 ---------------------------------------------------------------------

 SCF Done:  E(RHF) =  -298.908815687     A.U. after    9 cycles
 E2 =    -0.1154700160D+01 EUMP2 =    -0.30006351584712D+03
 CCSD(T)
 CCSD(T)= -0.30007727107D+03

 Unable to determine electronic state:  an orbital has unidentified symmetry.
 Alpha  occ. eigenvalues --  -20.17496 -20.17494 -20.13256 -20.13256  -0.98766
 Alpha  occ. eigenvalues --   -0.98243  -0.61559  -0.58956  -0.17372  -0.16542
 Alpha  occ. eigenvalues --   -0.16238  -0.11167  -0.11102  -0.09339   0.04100
 Alpha  occ. eigenvalues --    0.05542   0.19934
 Alpha virt. eigenvalues --    0.38622   0.77544   0.84453   1.16101   1.16346
 Alpha virt. eigenvalues --    1.17726   1.17917   1.20627   1.21515   1.24134
 Alpha virt. eigenvalues --    1.25532   1.28543   1.37781   1.38804   1.39264

 Mulliken charges:
               1
     1  O   -0.344819
     2  O   -0.655181
     3  O   -0.655181
     4  O   -0.344819
 Sum of Mulliken charges =  -2.00000

 Dipole moment (field-independent basis, Debye):
    X=             -0.0000    Y=             -0.0000    Z=             -0.0000  Tot=              0.0000
 Quadrupole moment (field-independent basis, Debye-Ang):
   XX=            -24.4385   YY=            -25.6988   ZZ=            -72.0884
   XY=              0.0000   XZ=              0.0000   YZ=              0.0000

 7508\MP4DQ=-299.9522763\MP4SDQ=-299.9785505\CCSD=-299.975609\CCSD(T)=-
 Normal termination of Gaussian 16 at Wed Jan  4 19:44:01 2023.
