 Gaussian 16, Revision A.03,
 Gaussian 16:  ES64L-G16RevA.03 25-Dec-2016

 ---------------------------------------------------------------
 #p ROCCSD(T)/cc-pVTZ Guess=Read SCF=(VeryTight,CDIIS,VShift=10)
 ---------------------------------------------------------------

 ---------
 O2_O2_101
 ---------
 Symbolic Z-matrix:
 Charge = -2 Multiplicity = 1

                         Standard orientation:
 ---------------------------------------------------------------------
 Center     Atomic      Atomic             Coordinates (Angstroms)
 Number     Number       Type             X           Y           Z
 ---------------------------------------------------------------------
      1          8           0        0.000000    0.000000    1.507584
      2          8           0        0.000000    0.000000    2.859964
      3          8           0        0.000000    0.000000   -2.859964
      4          8           0        0.000000    0.000000   -1.507584
 ---------------------------------------------------------------------

 SCF Done:  E(ROHF) =  -298.904955618     A.U. after    9 cycles
 E2 =    -0.1214985691D+01 EUMP2 =    -0.30011994130890D+03
 CCSD(T)
 CCSD(T)= -0.30010747785D+03

 Unable to determine electronic state:  an orbital has unidentified symmetry.
 Alpha  occ. eigenvalues --  -20.18401 -20.18400 -20.15811 -20.15811  -1.00235
 Alpha  occ. eigenvalues --   -1.00122  -0.62350  -0.61674  -0.18723  -0.18521
 Alpha  occ. eigenvalues --   -0.16449  -0.14825  -0.12428  -0.11533   0.02797
 Alpha  occ. eigenvalues --    0.03243   0.20243
 Alpha virt. eigenvalues --    0.34351   0.73906   0.81156   1.11629   1.15774
 Alpha virt. eigenvalues --    1.16331   1.17503   1.17523   1.18533   1.19478
 Alpha virt. eigenvalues --    1.23556   1.25051   1.30882   1.32365   1.37835

 Mulliken charges and spin densities:
               1          2
     1  O   -0.392985   0.000000
     2  O   -0.607015   0.000000
     3  O   -0.607015   0.000000
     4  O   -0.392985   0.000000
 Sum of Mulliken charges =  -2.00000   0.00000

 Dipole moment (field-independent basis, Debye):
    X=             -0.0000    Y=              0.0000    Z=             -0.0000  Tot=              0.0000
 Quadrupole moment (field-independent basis, Debye-Ang):
   XX=            -24.3288   YY=            -25.6847   ZZ=            -83.0083
   XY=              0.0000   XZ=              0.0000   YZ=              0.0000

 CCSD(T)/cc-pVTZ Guess=Read SCF=(VeryTight,CDIIS,VShift=10)\\O2_O2_101\
 8724\CCSD=-299.9877997\CCSD(T)=-300.1074778\RMSD=2.256e-09\PG=D*H [C*(
 Normal termination of Gaussian 16 at Sat Jan 14 19:23:38 2023.
