 Gaussian 16, Revision A.03,
 Gaussian 16:  ES64L-G16RevA.03 25-Dec-2016

 -------------------------------------
 #p CCSD(T)/cc-pVTZ Guess=Read SCF=XQC
 -------------------------------------

 ---------
 O2_O2_201
 ---------
 Symbolic Z-matrix:
 Charge = -2 Multiplicity = 1

                         Standard orientation:
 ---------------------------------------------------------------------
 Center     Atomic      Atomic             Coordinates (Angstroms)
 Number     Number       Type             X           Y           Z
 ---------------------------------------------------------------------
      1          8           0        0.000000    0.000000    2.215513
      2          8           0        0.000000    0.000000    3.567893
      3          8           0        0.000000    0.000000   -3.567893
      4          8           0        0.000000    0.000000   -2.215513
 ---------------------------------------------------------------------

 SCF Done:  E(RHF) =  -298.910454057     A.U. after    8 cycles
 E2 =    -0.1330821967D+01 EUMP2 =    -0.30024127602470D+03
 CCSD(T)
 CCSD(T)= -0.30014814913D+03

 Unable to determine electronic state:  an orbital has unidentified symmetry.
 Alpha  occ. eigenvalues --  -20.20470 -20.20469 -20.19289 -20.19289  -1.02961
 Alpha  occ. eigenvalues --   -1.02953  -0.64963  -0.64899  -0.21398  -0.21392
 Alpha  occ. eigenvalues --   -0.18702  -0.18607  -0.14938  -0.14638   0.00161
 Alpha  occ. eigenvalues --    0.00177   0.19475
 Alpha virt. eigenvalues --    0.29109   0.72761   0.74737   1.11816   1.14010
 Alpha virt. eigenvalues --    1.15029   1.15119   1.16020   1.16107   1.16631
 Alpha virt. eigenvalues --    1.20662   1.23488   1.23805   1.24976   1.25288

 Mulliken charges:
               1
     1  O   -0.440786
     2  O   -0.559214
     3  O   -0.559214
     4  O   -0.440786
 Sum of Mulliken charges =  -2.00000

 Dipole moment (field-independent basis, Debye):
    X=             -0.0000    Y=              0.0000    Z=             -0.0000  Tot=              0.0000
 Quadrupole moment (field-independent basis, Debye-Ang):
   XX=            -24.2384   YY=            -25.6646   ZZ=           -115.9171
   XY=              0.0000   XZ=              0.0000   YZ=              0.0000

 Normal termination of Gaussian 16 at Wed Jan  4 21:06:28 2023.
