 Gaussian 16, Revision A.03,
 Gaussian 16:  ES64L-G16RevA.03 25-Dec-2016

 ---------------------------------------------------------------
 #p ROCCSD(T)/cc-pVTZ Guess=Read SCF=(VeryTight,CDIIS,VShift=10)
 ---------------------------------------------------------------

 ---------
 O2_O2_240
 ---------
 Symbolic Z-matrix:
 Charge = -2 Multiplicity = 1

                         Standard orientation:
 ---------------------------------------------------------------------
 Center     Atomic      Atomic             Coordinates (Angstroms)
 Number     Number       Type             X           Y           Z
 ---------------------------------------------------------------------
      1          8           0        0.000000    0.000000    2.491606
      2          8           0        0.000000    0.000000    3.843986
      3          8           0        0.000000    0.000000   -3.843986
      4          8           0        0.000000    0.000000   -2.491606
 ---------------------------------------------------------------------

 SCF Done:  E(ROHF) =  -298.913949991     A.U. after    8 cycles
 E2 =    -0.1371336087D+01 EUMP2 =    -0.30028528607771D+03
 CCSD(T)
 CCSD(T)= -0.30015886668D+03

 Unable to determine electronic state:  an orbital has unidentified symmetry.
 Alpha  occ. eigenvalues --  -20.21175 -20.21175 -20.20210 -20.20210  -1.03763
 Alpha  occ. eigenvalues --   -1.03759  -0.65776  -0.65739  -0.22199  -0.22198
 Alpha  occ. eigenvalues --   -0.19509  -0.19485  -0.15699  -0.15477  -0.00648
 Alpha  occ. eigenvalues --   -0.00645   0.19122
 Alpha virt. eigenvalues --    0.27812   0.72627   0.73174   1.12124   1.12754
 Alpha virt. eigenvalues --    1.14285   1.14301   1.15276   1.15293   1.16742
 Alpha virt. eigenvalues --    1.17631   1.22795   1.22849   1.24278   1.24331

 Mulliken charges and spin densities:
               1          2
     1  O   -0.450722   0.000000
     2  O   -0.549278   0.000000
     3  O   -0.549278   0.000000
     4  O   -0.450722   0.000000
 Sum of Mulliken charges =  -2.00000   0.00000

 Dipole moment (field-independent basis, Debye):
    X=             -0.0000    Y=             -0.0000    Z=              0.0000  Tot=              0.0000
 Quadrupole moment (field-independent basis, Debye-Ang):
   XX=            -24.2320   YY=            -25.6608   ZZ=           -131.5448
   XY=              0.0000   XZ=              0.0000   YZ=              0.0000

 CCSD(T)/cc-pVTZ Guess=Read SCF=(VeryTight,CDIIS,VShift=10)\\O2_O2_240\
 \CCSD=-300.0177019\CCSD(T)=-300.1588667\RMSD=4.019e-09\PG=D*H [C*(O1O1
 Normal termination of Gaussian 16 at Sat Jan 14 22:27:11 2023.
