 Gaussian 16, Revision A.03,
 Gaussian 16:  ES64L-G16RevA.03 25-Dec-2016

 -------------------------------------
 #p CCSD(T)/cc-pVTZ Guess=Read SCF=XQC
 -------------------------------------

 ---------
 O2_O2_218
 ---------
 Symbolic Z-matrix:
 Charge = -2 Multiplicity = 1

                         Standard orientation:
 ---------------------------------------------------------------------
 Center     Atomic      Atomic             Coordinates (Angstroms)
 Number     Number       Type             X           Y           Z
 ---------------------------------------------------------------------
      1          8           0        0.000000    0.000000    2.335861
      2          8           0        0.000000    0.000000    3.688241
      3          8           0        0.000000    0.000000   -3.688241
      4          8           0        0.000000    0.000000   -2.335861
 ---------------------------------------------------------------------

 SCF Done:  E(RHF) =  -298.912000994     A.U. after    8 cycles
 E2 =    -0.1348639092D+01 EUMP2 =    -0.30026064008571D+03
 CCSD(T)
 CCSD(T)= -0.30015306688D+03

 Unable to determine electronic state:  an orbital has unidentified symmetry.
 Alpha  occ. eigenvalues --  -20.20789 -20.20788 -20.19712 -20.19712  -1.03327
 Alpha  occ. eigenvalues --   -1.03321  -0.65333  -0.65284  -0.21764  -0.21760
 Alpha  occ. eigenvalues --   -0.19067  -0.19013  -0.15284  -0.15023  -0.00208
 Alpha  occ. eigenvalues --   -0.00199   0.19317
 Alpha virt. eigenvalues --    0.28511   0.72780   0.73960   1.12120   1.13445
 Alpha virt. eigenvalues --    1.14696   1.14740   1.15687   1.15730   1.16766
 Alpha virt. eigenvalues --    1.18951   1.23193   1.23345   1.24678   1.24828

 Mulliken charges:
               1
     1  O   -0.445452
     2  O   -0.554548
     3  O   -0.554548
     4  O   -0.445452
 Sum of Mulliken charges =  -2.00000

 Dipole moment (field-independent basis, Debye):
    X=             -0.0000    Y=              0.0000    Z=             -0.0000  Tot=              0.0000
 Quadrupole moment (field-independent basis, Debye-Ang):
   XX=            -24.2349   YY=            -25.6627   ZZ=           -122.5406
   XY=              0.0000   XZ=              0.0000   YZ=              0.0000

 Normal termination of Gaussian 16 at Wed Jan  4 21:16:15 2023.
