 Gaussian 16, Revision A.03,
 Gaussian 16:  ES64L-G16RevA.03 25-Dec-2016

 -------------------------------------
 #p CCSD(T)/cc-pVTZ Guess=Read SCF=XQC
 -------------------------------------

 ---------
 O2_O2_254
 ---------
 Symbolic Z-matrix:
 Charge = -2 Multiplicity = 1

                         Standard orientation:
 ---------------------------------------------------------------------
 Center     Atomic      Atomic             Coordinates (Angstroms)
 Number     Number       Type             X           Y           Z
 ---------------------------------------------------------------------
      1          8           0        0.000000    0.000000    2.590716
      2          8           0        0.000000    0.000000    3.943096
      3          8           0        0.000000    0.000000   -3.943096
      4          8           0        0.000000    0.000000   -2.590716
 ---------------------------------------------------------------------

 SCF Done:  E(RHF) =  -298.915135645     A.U. after    8 cycles
 E2 =    -0.1385629699D+01 EUMP2 =    -0.30030076534431D+03
 CCSD(T)
 CCSD(T)= -0.30016226416D+03

 Unable to determine electronic state:  an orbital has unidentified symmetry.
 Alpha  occ. eigenvalues --  -20.21406 -20.21405 -20.20502 -20.20501  -1.04021
 Alpha  occ. eigenvalues --   -1.04017  -0.66037  -0.66005  -0.22456  -0.22456
 Alpha  occ. eigenvalues --   -0.19772  -0.19757  -0.15945  -0.15744  -0.00908
 Alpha  occ. eigenvalues --   -0.00906   0.19003
 Alpha virt. eigenvalues --    0.27405   0.72462   0.72778   1.12006   1.12377
 Alpha virt. eigenvalues --    1.14038   1.14046   1.15030   1.15039   1.16615
 Alpha virt. eigenvalues --    1.17091   1.22546   1.22573   1.24028   1.24055

 Mulliken charges:
               1
     1  O   -0.453692
     2  O   -0.546308
     3  O   -0.546308
     4  O   -0.453692
 Sum of Mulliken charges =  -2.00000

 Dipole moment (field-independent basis, Debye):
    X=             -0.0000    Y=              0.0000    Z=              0.0000  Tot=              0.0000
 Quadrupole moment (field-independent basis, Debye-Ang):
   XX=            -24.2306   YY=            -25.6598   ZZ=           -137.5283
   XY=              0.0000   XZ=              0.0000   YZ=              0.0000

 Normal termination of Gaussian 16 at Wed Jan  4 21:37:23 2023.
