 Gaussian 16, Revision A.03,
 Gaussian 16:  ES64L-G16RevA.03 25-Dec-2016

 -------------------------------------
 #p CCSD(T)/cc-pVTZ Guess=Read SCF=XQC
 -------------------------------------

 ---------
 O2_O2_114
 ---------
 Symbolic Z-matrix:
 Charge = -2 Multiplicity = 1

                         Standard orientation:
 ---------------------------------------------------------------------
 Center     Atomic      Atomic             Coordinates (Angstroms)
 Number     Number       Type             X           Y           Z
 ---------------------------------------------------------------------
      1          8           0        0.000000    0.000000    1.599615
      2          8           0        0.000000    0.000000    2.951995
      3          8           0        0.000000    0.000000   -2.951995
      4          8           0        0.000000    0.000000   -1.599615
 ---------------------------------------------------------------------

 SCF Done:  E(RHF) =  -298.904775841     A.U. after    9 cycles
 E2 =    -0.1231651568D+01 EUMP2 =    -0.30013642740922D+03
 CCSD(T)
 CCSD(T)= -0.30011435625D+03

 Unable to determine electronic state:  an orbital has unidentified symmetry.
 Alpha  occ. eigenvalues --  -20.18670 -20.18670 -20.16398 -20.16398  -1.00647
 Alpha  occ. eigenvalues --   -1.00573  -0.62704  -0.62239  -0.19119  -0.18986
 Alpha  occ. eigenvalues --   -0.16696  -0.15542  -0.12798  -0.12049   0.02416
 Alpha  occ. eigenvalues --    0.02725   0.20201
 Alpha virt. eigenvalues --    0.33416   0.73026   0.80282   1.09658   1.15728
 Alpha virt. eigenvalues --    1.16351   1.17135   1.17452   1.17967   1.18922
 Alpha virt. eigenvalues --    1.23691   1.25202   1.29243   1.30727   1.37491

 Mulliken charges:
               1
     1  O   -0.402470
     2  O   -0.597530
     3  O   -0.597530
     4  O   -0.402470
 Sum of Mulliken charges =  -2.00000

 Dipole moment (field-independent basis, Debye):
    X=             -0.0000    Y=             -0.0000    Z=             -0.0000  Tot=              0.0000
 Quadrupole moment (field-independent basis, Debye-Ang):
   XX=            -24.3055   YY=            -25.6809   ZZ=            -86.6810
   XY=              0.0000   XZ=              0.0000   YZ=              0.0000

 Normal termination of Gaussian 16 at Wed Jan  4 20:16:16 2023.
