 Gaussian 16, Revision A.03,
 Gaussian 16:  ES64L-G16RevA.03 25-Dec-2016

 ---------------------------------------------------------------
 #p ROCCSD(T)/cc-pVTZ Guess=Read SCF=(VeryTight,CDIIS,VShift=10)
 ---------------------------------------------------------------

 ---------
 O2_O2_271
 ---------
 Symbolic Z-matrix:
 Charge = -2 Multiplicity = 1

                         Standard orientation:
 ---------------------------------------------------------------------
 Center     Atomic      Atomic             Coordinates (Angstroms)
 Number     Number       Type             X           Y           Z
 ---------------------------------------------------------------------
      1          8           0        0.000000    0.000000    2.711063
      2          8           0        0.000000    0.000000    4.063444
      3          8           0        0.000000    0.000000   -4.063444
      4          8           0        0.000000    0.000000   -2.711063
 ---------------------------------------------------------------------

 SCF Done:  E(ROHF) =  -298.916507557     A.U. after    8 cycles
 E2 =    -0.1402875798D+01 EUMP2 =    -0.30031938335480D+03
 CCSD(T)
 CCSD(T)= -0.30016611802D+03

 Unable to determine electronic state:  an orbital has unidentified symmetry.
 Alpha  occ. eigenvalues --  -20.21669 -20.21669 -20.20831 -20.20831  -1.04314
 Alpha  occ. eigenvalues --   -1.04311  -0.66334  -0.66306  -0.22749  -0.22749
 Alpha  occ. eigenvalues --   -0.20073  -0.20065  -0.16226  -0.16046  -0.01204
 Alpha  occ. eigenvalues --   -0.01203   0.18867
 Alpha virt. eigenvalues --    0.26945   0.72225   0.72378   1.11802   1.11987
 Alpha virt. eigenvalues --    1.13754   1.13758   1.14747   1.14751   1.16389
 Alpha virt. eigenvalues --    1.16602   1.22256   1.22267   1.23737   1.23748

 Mulliken charges and spin densities:
               1          2
     1  O   -0.456954  -0.000000
     2  O   -0.543046  -0.000000
     3  O   -0.543046  -0.000000
     4  O   -0.456954  -0.000000
 Sum of Mulliken charges =  -2.00000  -0.00000

 Dipole moment (field-independent basis, Debye):
    X=             -0.0000    Y=             -0.0000    Z=              0.0000  Tot=              0.0000
 Quadrupole moment (field-independent basis, Debye-Ang):
   XX=            -24.2293   YY=            -25.6587   ZZ=           -145.0585
   XY=              0.0000   XZ=              0.0000   YZ=              0.0000

 CCSD(T)/cc-pVTZ Guess=Read SCF=(VeryTight,CDIIS,VShift=10)\\O2_O2_271\
 7362\CCSD=-300.0227121\CCSD(T)=-300.166118\RMSD=3.373e-09\PG=D*H [C*(O
 Normal termination of Gaussian 16 at Sat Jan 14 23:08:49 2023.
