 Gaussian 16, Revision A.03,
 Gaussian 16:  ES64L-G16RevA.03 25-Dec-2016

 -------------------------------------
 #p CCSD(T)/cc-pVTZ Guess=Read SCF=XQC
 -------------------------------------

 ---------
 O2_O2_124
 ---------
 Symbolic Z-matrix:
 Charge = -2 Multiplicity = 1

                         Standard orientation:
 ---------------------------------------------------------------------
 Center     Atomic      Atomic             Coordinates (Angstroms)
 Number     Number       Type             X           Y           Z
 ---------------------------------------------------------------------
      1          8           0        0.000000    0.000000    1.670408
      2          8           0        0.000000    0.000000    3.022788
      3          8           0        0.000000    0.000000   -3.022788
      4          8           0        0.000000    0.000000   -1.670408
 ---------------------------------------------------------------------

 SCF Done:  E(RHF) =  -298.904933691     A.U. after    8 cycles
 E2 =    -0.1244070898D+01 EUMP2 =    -0.30014900458929D+03
 CCSD(T)
 CCSD(T)= -0.30011923224D+03

 Unable to determine electronic state:  an orbital has unidentified symmetry.
 Alpha  occ. eigenvalues --  -20.18880 -20.18880 -20.16814 -20.16814  -1.00952
 Alpha  occ. eigenvalues --   -1.00898  -0.62983  -0.62631  -0.19416  -0.19320
 Alpha  occ. eigenvalues --   -0.16910  -0.16026  -0.13074  -0.12416   0.02129
 Alpha  occ. eigenvalues --    0.02359   0.20146
 Alpha virt. eigenvalues --    0.32766   0.72542   0.79611   1.08836   1.15659
 Alpha virt. eigenvalues --    1.16307   1.16899   1.17370   1.17551   1.18513
 Alpha virt. eigenvalues --    1.23810   1.25325   1.28165   1.29649   1.37188

 Mulliken charges:
               1
     1  O   -0.408799
     2  O   -0.591201
     3  O   -0.591201
     4  O   -0.408799
 Sum of Mulliken charges =  -2.00000

 Dipole moment (field-independent basis, Debye):
    X=             -0.0000    Y=             -0.0000    Z=              0.0000  Tot=              0.0000
 Quadrupole moment (field-independent basis, Debye-Ang):
   XX=            -24.2907   YY=            -25.6783   ZZ=            -89.6328
   XY=              0.0000   XZ=              0.0000   YZ=              0.0000

 Normal termination of Gaussian 16 at Wed Jan  4 20:21:42 2023.
