 Gaussian 16, Revision A.03,
 Gaussian 16:  ES64L-G16RevA.03 25-Dec-2016

 ---------------------------------------------------------------
 #p ROCCSD(T)/cc-pVTZ Guess=Read SCF=(VeryTight,CDIIS,VShift=10)
 ---------------------------------------------------------------

 ---------
 O2_O2_192
 ---------
 Symbolic Z-matrix:
 Charge = -2 Multiplicity = 1

                         Standard orientation:
 ---------------------------------------------------------------------
 Center     Atomic      Atomic             Coordinates (Angstroms)
 Number     Number       Type             X           Y           Z
 ---------------------------------------------------------------------
      1          8           0        0.000000    0.000000    2.151800
      2          8           0        0.000000    0.000000    3.504180
      3          8           0        0.000000    0.000000   -3.504180
      4          8           0        0.000000    0.000000   -2.151800
 ---------------------------------------------------------------------

 SCF Done:  E(ROHF) =  -298.909637256     A.U. after    8 cycles
 E2 =    -0.1321258395D+01 EUMP2 =    -0.30023089565097D+03
 CCSD(T)
 CCSD(T)= -0.30014537307D+03

 Unable to determine electronic state:  an orbital has unidentified symmetry.
 Alpha  occ. eigenvalues --  -20.20294 -20.20294 -20.19050 -20.19050  -1.02756
 Alpha  occ. eigenvalues --   -1.02747  -0.64756  -0.64682  -0.21195  -0.21186
 Alpha  occ. eigenvalues --   -0.18501  -0.18375  -0.14745  -0.14422   0.00366
 Alpha  occ. eigenvalues --    0.00389   0.19561
 Alpha virt. eigenvalues --    0.29449   0.72693   0.75211   1.11493   1.14295
 Alpha virt. eigenvalues --    1.15208   1.15338   1.16200   1.16324   1.16535
 Alpha virt. eigenvalues --    1.21930   1.23630   1.24088   1.25120   1.25571

 Mulliken charges and spin densities:
               1          2
     1  O   -0.438069   0.000000
     2  O   -0.561931   0.000000
     3  O   -0.561931   0.000000
     4  O   -0.438069   0.000000
 Sum of Mulliken charges =  -2.00000   0.00000

 Dipole moment (field-independent basis, Debye):
    X=             -0.0000    Y=              0.0000    Z=              0.0000  Tot=              0.0000
 Quadrupole moment (field-independent basis, Debye-Ang):
   XX=            -24.2409   YY=            -25.6657   ZZ=           -112.5288
   XY=              0.0000   XZ=              0.0000   YZ=              0.0000

 CCSD(T)/cc-pVTZ Guess=Read SCF=(VeryTight,CDIIS,VShift=10)\\O2_O2_192\
 6203\CCSD=-300.0086594\CCSD(T)=-300.1453731\RMSD=3.436e-09\PG=D*H [C*(
 Normal termination of Gaussian 16 at Sat Jan 14 21:22:23 2023.
