 Gaussian 16, Revision A.03,
 Gaussian 16:  ES64L-G16RevA.03 25-Dec-2016

 -------------------------------------
 #p CCSD(T)/cc-pVTZ Guess=Read SCF=XQC
 -------------------------------------

 ---------
 O2_O2_277
 ---------
 Symbolic Z-matrix:
 Charge = -2 Multiplicity = 1

                         Standard orientation:
 ---------------------------------------------------------------------
 Center     Atomic      Atomic             Coordinates (Angstroms)
 Number     Number       Type             X           Y           Z
 ---------------------------------------------------------------------
      1          8           0        0.000000    0.000000    2.753539
      2          8           0        0.000000    0.000000    4.105919
      3          8           0        0.000000    0.000000   -4.105919
      4          8           0        0.000000    0.000000   -2.753539
 ---------------------------------------------------------------------

 SCF Done:  E(RHF) =  -298.916973428     A.U. after    8 cycles
 E2 =    -0.1408939689D+01 EUMP2 =    -0.30032591311712D+03
 CCSD(T)
 CCSD(T)= -0.30016741155D+03

 Unable to determine electronic state:  an orbital has unidentified symmetry.
 Alpha  occ. eigenvalues --  -20.21758 -20.21758 -20.20942 -20.20942  -1.04412
 Alpha  occ. eigenvalues --   -1.04409  -0.66434  -0.66408  -0.22848  -0.22847
 Alpha  occ. eigenvalues --   -0.20175  -0.20168  -0.16320  -0.16148  -0.01304
 Alpha  occ. eigenvalues --   -0.01303   0.18821
 Alpha virt. eigenvalues --    0.26790   0.72136   0.72253   1.11722   1.11864
 Alpha virt. eigenvalues --    1.13659   1.13661   1.14652   1.14655   1.16299
 Alpha virt. eigenvalues --    1.16458   1.22157   1.22166   1.23638   1.23647

 Mulliken charges:
               1
     1  O   -0.458023
     2  O   -0.541977
     3  O   -0.541977
     4  O   -0.458023
 Sum of Mulliken charges =  -2.00000

 Dipole moment (field-independent basis, Debye):
    X=             -0.0000    Y=              0.0000    Z=              0.0000  Tot=              0.0000
 Quadrupole moment (field-independent basis, Debye-Ang):
   XX=            -24.2290   YY=            -25.6583   ZZ=           -147.7853
   XY=              0.0000   XZ=              0.0000   YZ=              0.0000

 Normal termination of Gaussian 16 at Wed Jan  4 21:50:42 2023.
