 Gaussian 16, Revision A.03,
 Gaussian 16:  ES64L-G16RevA.03 25-Dec-2016

 -------------------------------------
 #p CCSD(T)/cc-pVTZ Guess=Read SCF=XQC
 -------------------------------------

 ---------
 O2_O2_235
 ---------
 Symbolic Z-matrix:
 Charge = -2 Multiplicity = 1

                         Standard orientation:
 ---------------------------------------------------------------------
 Center     Atomic      Atomic             Coordinates (Angstroms)
 Number     Number       Type             X           Y           Z
 ---------------------------------------------------------------------
      1          8           0        0.000000    0.000000    2.456209
      2          8           0        0.000000    0.000000    3.808589
      3          8           0        0.000000    0.000000   -3.808589
      4          8           0        0.000000    0.000000   -2.456209
 ---------------------------------------------------------------------

 SCF Done:  E(RHF) =  -298.913515284     A.U. after    8 cycles
 E2 =    -0.1366206162D+01 EUMP2 =    -0.30027972144565D+03
 CCSD(T)
 CCSD(T)= -0.30015760021D+03

 Unable to determine electronic state:  an orbital has unidentified symmetry.
 Alpha  occ. eigenvalues --  -20.21090 -20.21090 -20.20102 -20.20102  -1.03668
 Alpha  occ. eigenvalues --   -1.03663  -0.65679  -0.65639  -0.22104  -0.22102
 Alpha  occ. eigenvalues --   -0.19412  -0.19382  -0.15608  -0.15378  -0.00552
 Alpha  occ. eigenvalues --   -0.00547   0.19165
 Alpha virt. eigenvalues --    0.27964   0.72676   0.73333   1.12149   1.12902
 Alpha virt. eigenvalues --    1.14376   1.14396   1.15367   1.15388   1.16768
 Alpha virt. eigenvalues --    1.17870   1.22885   1.22955   1.24368   1.24437

 Mulliken charges:
               1
     1  O   -0.449593
     2  O   -0.550407
     3  O   -0.550407
     4  O   -0.449593
 Sum of Mulliken charges =  -2.00000

 Dipole moment (field-independent basis, Debye):
    X=             -0.0000    Y=             -0.0000    Z=             -0.0000  Tot=              0.0000
 Quadrupole moment (field-independent basis, Debye-Ang):
   XX=            -24.2325   YY=            -25.6612   ZZ=           -129.4556
   XY=              0.0000   XZ=              0.0000   YZ=              0.0000

 Normal termination of Gaussian 16 at Wed Jan  4 21:26:00 2023.
