 Gaussian 16, Revision A.03,
 Gaussian 16:  ES64L-G16RevA.03 25-Dec-2016

 ---------------------------------------------------------------
 #p ROCCSD(T)/cc-pVTZ Guess=Read SCF=(VeryTight,CDIIS,VShift=10)
 ---------------------------------------------------------------

 --------
 O2_O2_39
 --------
 Symbolic Z-matrix:
 Charge = -2 Multiplicity = 1

                         Standard orientation:
 ---------------------------------------------------------------------
 Center     Atomic      Atomic             Coordinates (Angstroms)
 Number     Number       Type             X           Y           Z
 ---------------------------------------------------------------------
      1          8           0        0.000000    0.000000    1.068668
      2          8           0        0.000000    0.000000    2.421048
      3          8           0        0.000000    0.000000   -2.421048
      4          8           0        0.000000    0.000000   -1.068668
 ---------------------------------------------------------------------

 SCF Done:  E(ROHF) =  -298.908722007     A.U. after    9 cycles
 E2 =    -0.1129615840D+01 EUMP2 =    -0.30003833784607D+03
 CCSD(T)
 CCSD(T)= -0.30005819934D+03

 Unable to determine electronic state:  an orbital has unidentified symmetry.
 Alpha  occ. eigenvalues --  -20.17071 -20.17068 -20.11811 -20.11811  -0.98236
 Alpha  occ. eigenvalues --   -0.97203  -0.61834  -0.57198  -0.16934  -0.16719
 Alpha  occ. eigenvalues --   -0.15432  -0.10740  -0.08449  -0.08144   0.04593
 Alpha  occ. eigenvalues --    0.06882   0.19421
 Alpha virt. eigenvalues --    0.41106   0.78844   0.86197   1.16561   1.17132
 Alpha virt. eigenvalues --    1.17915   1.18850   1.21598   1.22445   1.25125
 Alpha virt. eigenvalues --    1.26547   1.37526   1.39058   1.40578   1.41156

 Mulliken charges and spin densities:
               1          2
     1  O   -0.313189   0.000000
     2  O   -0.686811   0.000000
     3  O   -0.686811   0.000000
     4  O   -0.313189   0.000000
 Sum of Mulliken charges =  -2.00000   0.00000

 Dipole moment (field-independent basis, Debye):
    X=             -0.0000    Y=              0.0000    Z=             -0.0000  Tot=              0.0000
 Quadrupole moment (field-independent basis, Debye-Ang):
   XX=            -24.4823   YY=            -25.6968   ZZ=            -68.4627
   XY=              0.0000   XZ=              0.0000   YZ=              0.0000

 CCSD(T)/cc-pVTZ Guess=Read SCF=(VeryTight,CDIIS,VShift=10)\\O2_O2_39\\
 \CCSD=-299.9665989\CCSD(T)=-300.0581993\RMSD=6.613e-09\PG=D*H [C*(O1O1
 Normal termination of Gaussian 16 at Sat Jan 14 18:06:52 2023.
