 Gaussian 16, Revision A.03,
 Gaussian 16:  ES64L-G16RevA.03 25-Dec-2016

 -------------------------------------
 #p CCSD(T)/cc-pVTZ Guess=Read SCF=XQC
 -------------------------------------

 ---------
 O2_O2_204
 ---------
 Symbolic Z-matrix:
 Charge = -2 Multiplicity = 1

                         Standard orientation:
 ---------------------------------------------------------------------
 Center     Atomic      Atomic             Coordinates (Angstroms)
 Number     Number       Type             X           Y           Z
 ---------------------------------------------------------------------
      1          8           0        0.000000    0.000000    2.236751
      2          8           0        0.000000    0.000000    3.589131
      3          8           0        0.000000    0.000000   -3.589131
      4          8           0        0.000000    0.000000   -2.236751
 ---------------------------------------------------------------------

 SCF Done:  E(RHF) =  -298.910727601     A.U. after    8 cycles
 E2 =    -0.1333988060D+01 EUMP2 =    -0.30024471566122D+03
 CCSD(T)
 CCSD(T)= -0.30014904618D+03

 Unable to determine electronic state:  an orbital has unidentified symmetry.
 Alpha  occ. eigenvalues --  -20.20527 -20.20527 -20.19366 -20.19366  -1.03027
 Alpha  occ. eigenvalues --   -1.03020  -0.65030  -0.64970  -0.21465  -0.21459
 Alpha  occ. eigenvalues --   -0.18768  -0.18682  -0.15001  -0.14708   0.00094
 Alpha  occ. eigenvalues --    0.00108   0.19447
 Alpha virt. eigenvalues --    0.28999   0.72775   0.74589   1.11897   1.13912
 Alpha virt. eigenvalues --    1.14969   1.15049   1.15961   1.16038   1.16661
 Alpha virt. eigenvalues --    1.20300   1.23438   1.23717   1.24925   1.25200

 Mulliken charges:
               1
     1  O   -0.441652
     2  O   -0.558348
     3  O   -0.558348
     4  O   -0.441652
 Sum of Mulliken charges =  -2.00000

 Dipole moment (field-independent basis, Debye):
    X=             -0.0000    Y=              0.0000    Z=             -0.0000  Tot=              0.0000
 Quadrupole moment (field-independent basis, Debye-Ang):
   XX=            -24.2377   YY=            -25.6642   ZZ=           -117.0648
   XY=              0.0000   XZ=              0.0000   YZ=              0.0000

 Normal termination of Gaussian 16 at Wed Jan  4 21:08:10 2023.
