 Gaussian 16, Revision A.03,
 Gaussian 16:  ES64L-G16RevA.03 25-Dec-2016

 -------------------------------------
 #p CCSD(T)/cc-pVTZ Guess=Read SCF=XQC
 -------------------------------------

 --------
 O2_O2_43
 --------
 Symbolic Z-matrix:
 Charge = -2 Multiplicity = 1

                         Standard orientation:
 ---------------------------------------------------------------------
 Center     Atomic      Atomic             Coordinates (Angstroms)
 Number     Number       Type             X           Y           Z
 ---------------------------------------------------------------------
      1          8           0        0.000000    0.000000    1.096985
      2          8           0        0.000000    0.000000    2.449365
      3          8           0        0.000000    0.000000   -2.449365
      4          8           0        0.000000    0.000000   -1.096985
 ---------------------------------------------------------------------

 SCF Done:  E(RHF) =  -298.909195401     A.U. after    9 cycles
 E2 =    -0.1135097905D+01 EUMP2 =    -0.30004429330572D+03
 CCSD(T)
 CCSD(T)= -0.30006310029D+03

 Unable to determine electronic state:  an orbital has unidentified symmetry.
 Alpha  occ. eigenvalues --  -20.17172 -20.17170 -20.12162 -20.12162  -0.98340
 Alpha  occ. eigenvalues --   -0.97455  -0.61712  -0.57638  -0.17015  -0.16569
 Alpha  occ. eigenvalues --   -0.15701  -0.10823  -0.09133  -0.08430   0.04488
 Alpha  occ. eigenvalues --    0.06555   0.19565
 Alpha virt. eigenvalues --    0.40504   0.78568   0.85774   1.16440   1.16896
 Alpha virt. eigenvalues --    1.17892   1.18588   1.21372   1.22229   1.24856
 Alpha virt. eigenvalues --    1.26266   1.35789   1.39014   1.39981   1.40609

 Mulliken charges:
               1
     1  O   -0.321015
     2  O   -0.678985
     3  O   -0.678985
     4  O   -0.321015
 Sum of Mulliken charges =  -2.00000

 Dipole moment (field-independent basis, Debye):
    X=             -0.0000    Y=              0.0000    Z=             -0.0000  Tot=              0.0000
 Quadrupole moment (field-independent basis, Debye-Ang):
   XX=            -24.4741   YY=            -25.6986   ZZ=            -69.2144
   XY=              0.0000   XZ=              0.0000   YZ=              0.0000

 0009\MP4DQ=-299.9501146\MP4SDQ=-299.9761795\CCSD=-299.9691518\CCSD(T)=
 Normal termination of Gaussian 16 at Wed Jan  4 19:35:43 2023.
