 Gaussian 16, Revision A.03,
 Gaussian 16:  ES64L-G16RevA.03 25-Dec-2016

 ---------------------------------------------------------------
 #p ROCCSD(T)/cc-pVTZ Guess=Read SCF=(VeryTight,CDIIS,VShift=10)
 ---------------------------------------------------------------

 ---------
 O2_O2_206
 ---------
 Symbolic Z-matrix:
 Charge = -2 Multiplicity = 1

                         Standard orientation:
 ---------------------------------------------------------------------
 Center     Atomic      Atomic             Coordinates (Angstroms)
 Number     Number       Type             X           Y           Z
 ---------------------------------------------------------------------
      1          8           0        0.000000    0.000000    2.250910
      2          8           0        0.000000    0.000000    3.603290
      3          8           0        0.000000    0.000000   -3.603290
      4          8           0        0.000000    0.000000   -2.250910
 ---------------------------------------------------------------------

 SCF Done:  E(ROHF) =  -298.910910034     A.U. after    8 cycles
 E2 =    -0.1336093183D+01 EUMP2 =    -0.30024700321730D+03
 CCSD(T)
 CCSD(T)= -0.30014963832D+03

 Unable to determine electronic state:  an orbital has unidentified symmetry.
 Alpha  occ. eigenvalues --  -20.20565 -20.20565 -20.19417 -20.19417  -1.03071
 Alpha  occ. eigenvalues --   -1.03064  -0.65074  -0.65016  -0.21508  -0.21503
 Alpha  occ. eigenvalues --   -0.18811  -0.18731  -0.15042  -0.14755   0.00050
 Alpha  occ. eigenvalues --    0.00063   0.19428
 Alpha virt. eigenvalues --    0.28927   0.72781   0.74492   1.11944   1.13846
 Alpha virt. eigenvalues --    1.14930   1.15003   1.15921   1.15992   1.16680
 Alpha virt. eigenvalues --    1.20075   1.23404   1.23660   1.24891   1.25143

 Mulliken charges and spin densities:
               1          2
     1  O   -0.442219   0.000000
     2  O   -0.557781   0.000000
     3  O   -0.557781   0.000000
     4  O   -0.442219   0.000000
 Sum of Mulliken charges =  -2.00000   0.00000

 Dipole moment (field-independent basis, Debye):
    X=             -0.0000    Y=             -0.0000    Z=              0.0000  Tot=              0.0000
 Quadrupole moment (field-independent basis, Debye-Ang):
   XX=            -24.2373   YY=            -25.6640   ZZ=           -117.8349
   XY=              0.0000   XZ=              0.0000   YZ=              0.0000

 CCSD(T)/cc-pVTZ Guess=Read SCF=(VeryTight,CDIIS,VShift=10)\\O2_O2_206\
 \CCSD=-300.0114613\CCSD(T)=-300.1496383\RMSD=3.724e-09\PG=D*H [C*(O1O1
 Normal termination of Gaussian 16 at Sat Jan 14 21:40:24 2023.
