 Gaussian 16, Revision A.03,
 Gaussian 16:  ES64L-G16RevA.03 25-Dec-2016

 ---------------------------------------------------------------
 #p ROCCSD(T)/cc-pVTZ Guess=Read SCF=(VeryTight,CDIIS,VShift=10)
 ---------------------------------------------------------------

 ---------
 O2_O2_223
 ---------
 Symbolic Z-matrix:
 Charge = -2 Multiplicity = 1

                         Standard orientation:
 ---------------------------------------------------------------------
 Center     Atomic      Atomic             Coordinates (Angstroms)
 Number     Number       Type             X           Y           Z
 ---------------------------------------------------------------------
      1          8           0        0.000000    0.000000    2.371258
      2          8           0        0.000000    0.000000    3.723638
      3          8           0        0.000000    0.000000   -3.723638
      4          8           0        0.000000    0.000000   -2.371258
 ---------------------------------------------------------------------

 SCF Done:  E(ROHF) =  -298.912451346     A.U. after    8 cycles
 E2 =    -0.1353828321D+01 EUMP2 =    -0.30026627966659D+03
 CCSD(T)
 CCSD(T)= -0.30015443805D+03

 Unable to determine electronic state:  an orbital has unidentified symmetry.
 Alpha  occ. eigenvalues --  -20.20879 -20.20879 -20.19830 -20.19830  -1.03430
 Alpha  occ. eigenvalues --   -1.03424  -0.65438  -0.65392  -0.21866  -0.21864
 Alpha  occ. eigenvalues --   -0.19171  -0.19125  -0.15382  -0.15130  -0.00311
 Alpha  occ. eigenvalues --   -0.00305   0.19272
 Alpha virt. eigenvalues --    0.28346   0.72760   0.73761   1.12151   1.13280
 Alpha virt. eigenvalues --    1.14600   1.14635   1.15591   1.15626   1.16782
 Alpha virt. eigenvalues --    1.18581   1.23103   1.23224   1.24587   1.24707

 Mulliken charges and spin densities:
               1          2
     1  O   -0.446721   0.000000
     2  O   -0.553279   0.000000
     3  O   -0.553279   0.000000
     4  O   -0.446721   0.000000
 Sum of Mulliken charges =  -2.00000   0.00000

 Dipole moment (field-independent basis, Debye):
    X=             -0.0000    Y=              0.0000    Z=              0.0000  Tot=              0.0000
 Quadrupole moment (field-independent basis, Debye-Ang):
   XX=            -24.2341   YY=            -25.6623   ZZ=           -124.5442
   XY=              0.0000   XZ=              0.0000   YZ=              0.0000

 CCSD(T)/cc-pVTZ Guess=Read SCF=(VeryTight,CDIIS,VShift=10)\\O2_O2_223\
 9195\CCSD=-300.0146822\CCSD(T)=-300.1544381\RMSD=4.138e-09\PG=D*H [C*(
 Normal termination of Gaussian 16 at Sat Jan 14 22:04:36 2023.
