 Gaussian 16, Revision A.03,
 Gaussian 16:  ES64L-G16RevA.03 25-Dec-2016

 -------------------------------------
 #p CCSD(T)/cc-pVTZ Guess=Read SCF=XQC
 -------------------------------------

 ---------
 O2_O2_200
 ---------
 Symbolic Z-matrix:
 Charge = -2 Multiplicity = 1

                         Standard orientation:
 ---------------------------------------------------------------------
 Center     Atomic      Atomic             Coordinates (Angstroms)
 Number     Number       Type             X           Y           Z
 ---------------------------------------------------------------------
      1          8           0        0.000000    0.000000    2.208433
      2          8           0        0.000000    0.000000    3.560814
      3          8           0        0.000000    0.000000   -3.560814
      4          8           0        0.000000    0.000000   -2.208433
 ---------------------------------------------------------------------

 SCF Done:  E(RHF) =  -298.910362949     A.U. after    8 cycles
 E2 =    -0.1329764266D+01 EUMP2 =    -0.30024012721531D+03
 CCSD(T)
 CCSD(T)= -0.30014784682D+03

 Unable to determine electronic state:  an orbital has unidentified symmetry.
 Alpha  occ. eigenvalues --  -20.20450 -20.20450 -20.19263 -20.19263  -1.02938
 Alpha  occ. eigenvalues --   -1.02930  -0.64940  -0.64876  -0.21376  -0.21370
 Alpha  occ. eigenvalues --   -0.18680  -0.18582  -0.14917  -0.14615   0.00183
 Alpha  occ. eigenvalues --    0.00200   0.19485
 Alpha virt. eigenvalues --    0.29146   0.72756   0.74788   1.11787   1.14043
 Alpha virt. eigenvalues --    1.15049   1.15143   1.16040   1.16131   1.16620
 Alpha virt. eigenvalues --    1.20789   1.23504   1.23835   1.24992   1.25318

 Mulliken charges:
               1
     1  O   -0.440493
     2  O   -0.559507
     3  O   -0.559507
     4  O   -0.440493
 Sum of Mulliken charges =  -2.00000

 Dipole moment (field-independent basis, Debye):
    X=             -0.0000    Y=              0.0000    Z=              0.0000  Tot=              0.0000
 Quadrupole moment (field-independent basis, Debye-Ang):
   XX=            -24.2387   YY=            -25.6647   ZZ=           -115.5366
   XY=              0.0000   XZ=              0.0000   YZ=              0.0000

 Normal termination of Gaussian 16 at Wed Jan  4 21:05:52 2023.
