 Gaussian 16, Revision A.03,
 Gaussian 16:  ES64L-G16RevA.03 25-Dec-2016

 -------------------------------------
 #p CCSD(T)/cc-pVTZ Guess=Read SCF=XQC
 -------------------------------------

 ---------
 O2_O2_283
 ---------
 Symbolic Z-matrix:
 Charge = -2 Multiplicity = 1

                         Standard orientation:
 ---------------------------------------------------------------------
 Center     Atomic      Atomic             Coordinates (Angstroms)
 Number     Number       Type             X           Y           Z
 ---------------------------------------------------------------------
      1          8           0        0.000000    0.000000    2.796015
      2          8           0        0.000000    0.000000    4.148395
      3          8           0        0.000000    0.000000   -4.148395
      4          8           0        0.000000    0.000000   -2.796015
 ---------------------------------------------------------------------

 SCF Done:  E(RHF) =  -298.917429761     A.U. after    8 cycles
 E2 =    -0.1414993544D+01 EUMP2 =    -0.30033242330458D+03
 CCSD(T)
 CCSD(T)= -0.30016867488D+03

 Unable to determine electronic state:  an orbital has unidentified symmetry.
 Alpha  occ. eigenvalues --  -20.21846 -20.21845 -20.21049 -20.21049  -1.04508
 Alpha  occ. eigenvalues --   -1.04506  -0.66532  -0.66506  -0.22944  -0.22944
 Alpha  occ. eigenvalues --   -0.20274  -0.20268  -0.16413  -0.16247  -0.01401
 Alpha  occ. eigenvalues --   -0.01400   0.18776
 Alpha virt. eigenvalues --    0.26640   0.72045   0.72134   1.11639   1.11748
 Alpha virt. eigenvalues --    1.13565   1.13567   1.14558   1.14561   1.16206
 Alpha virt. eigenvalues --    1.16324   1.22061   1.22067   1.23541   1.23547

 Mulliken charges:
               1
     1  O   -0.459054
     2  O   -0.540946
     3  O   -0.540946
     4  O   -0.459054
 Sum of Mulliken charges =  -2.00000

 Dipole moment (field-independent basis, Debye):
    X=             -0.0000    Y=             -0.0000    Z=              0.0000  Tot=              0.0000
 Quadrupole moment (field-independent basis, Debye-Ang):
   XX=            -24.2286   YY=            -25.6580   ZZ=           -150.5481
   XY=              0.0000   XZ=              0.0000   YZ=              0.0000

 5468\MP4DQ=-299.2268124\MP4SDQ=-299.2707811\CCSD=-300.0244921\CCSD(T)=
 Normal termination of Gaussian 16 at Wed Jan  4 21:54:23 2023.
