 Gaussian 16, Revision A.03,
 Gaussian 16:  ES64L-G16RevA.03 25-Dec-2016

 ---------------------------------------------------------------
 #p ROCCSD(T)/cc-pVTZ Guess=Read SCF=(VeryTight,CDIIS,VShift=10)
 ---------------------------------------------------------------

 --------
 O2_O2_15
 --------
 Symbolic Z-matrix:
 Charge = -2 Multiplicity = 1

                         Standard orientation:
 ---------------------------------------------------------------------
 Center     Atomic      Atomic             Coordinates (Angstroms)
 Number     Number       Type             X           Y           Z
 ---------------------------------------------------------------------
      1          8           0        0.000000    0.000000    0.898765
      2          8           0        0.000000    0.000000    2.251145
      3          8           0        0.000000    0.000000   -2.251145
      4          8           0        0.000000    0.000000   -0.898765
 ---------------------------------------------------------------------

 SCF Done:  E(ROHF) =  -298.889663808     A.U. after   10 cycles
 E2 =    -0.1100465639D+01 EUMP2 =    -0.29999012944765D+03
 CCSD(T)
 CCSD(T)= -0.30001215233D+03

 Unable to determine electronic state:  an orbital has unidentified symmetry.
 Alpha  occ. eigenvalues --  -20.16377 -20.16372 -20.09205 -20.09205  -0.98111
 Alpha  occ. eigenvalues --   -0.95349  -0.63876  -0.53734  -0.18224  -0.16947
 Alpha  occ. eigenvalues --   -0.13453  -0.10626  -0.06092  -0.02533   0.05140
 Alpha  occ. eigenvalues --    0.09319   0.18057
 Alpha virt. eigenvalues --    0.45457   0.80277   0.89467   1.17666   1.17930
 Alpha virt. eigenvalues --    1.18988   1.20729   1.23136   1.23912   1.27463
 Alpha virt. eigenvalues --    1.29022   1.39069   1.39450   1.43754   1.45289

 Mulliken charges and spin densities:
               1          2
     1  O   -0.253963  -0.000000
     2  O   -0.746037  -0.000000
     3  O   -0.746037  -0.000000
     4  O   -0.253963  -0.000000
 Sum of Mulliken charges =  -2.00000  -0.00000

 Dipole moment (field-independent basis, Debye):
    X=             -0.0000    Y=              0.0000    Z=              0.0000  Tot=              0.0000
 Quadrupole moment (field-independent basis, Debye-Ang):
   XX=            -24.4827   YY=            -25.6490   ZZ=            -64.7925
   XY=              0.0000   XZ=              0.0000   YZ=              0.0000

 CCSD(T)/cc-pVTZ Guess=Read SCF=(VeryTight,CDIIS,VShift=10)\\O2_O2_15\\
 \CCSD=-299.9349702\CCSD(T)=-300.0121523\RMSD=2.288e-09\PG=D*H [C*(O1O1
 Normal termination of Gaussian 16 at Sat Jan 14 17:37:32 2023.
