 Gaussian 16, Revision A.03,
 Gaussian 16:  ES64L-G16RevA.03 25-Dec-2016

 ---------------------------------------------------------------
 #p ROCCSD(T)/cc-pVTZ Guess=Read SCF=(VeryTight,CDIIS,VShift=10)
 ---------------------------------------------------------------

 --------
 O2_O2_35
 --------
 Symbolic Z-matrix:
 Charge = -2 Multiplicity = 1

                         Standard orientation:
 ---------------------------------------------------------------------
 Center     Atomic      Atomic             Coordinates (Angstroms)
 Number     Number       Type             X           Y           Z
 ---------------------------------------------------------------------
      1          8           0        0.000000    0.000000    1.040351
      2          8           0        0.000000    0.000000    2.392731
      3          8           0        0.000000    0.000000   -2.392731
      4          8           0        0.000000    0.000000   -1.040351
 ---------------------------------------------------------------------

 SCF Done:  E(ROHF) =  -298.907799440     A.U. after    9 cycles
 E2 =    -0.1124234398D+01 EUMP2 =    -0.30003203383813D+03
 CCSD(T)
 CCSD(T)= -0.30005276448D+03

 Unable to determine electronic state:  an orbital has unidentified symmetry.
 Alpha  occ. eigenvalues --  -20.16964 -20.16962 -20.11441 -20.11441  -0.98146
 Alpha  occ. eigenvalues --   -0.96937  -0.62003  -0.56724  -0.16897  -0.16868
 Alpha  occ. eigenvalues --   -0.15148  -0.10669  -0.07844  -0.07698   0.04695
 Alpha  occ. eigenvalues --    0.07228   0.19257
 Alpha virt. eigenvalues --    0.41740   0.79114   0.86645   1.16693   1.17399
 Alpha virt. eigenvalues --    1.17933   1.19139   1.21830   1.22666   1.25425
 Alpha virt. eigenvalues --    1.26863   1.38682   1.39093   1.41158   1.42206

 Mulliken charges and spin densities:
               1          2
     1  O   -0.304880  -0.000000
     2  O   -0.695120  -0.000000
     3  O   -0.695120  -0.000000
     4  O   -0.304880  -0.000000
 Sum of Mulliken charges =  -2.00000  -0.00000

 Dipole moment (field-independent basis, Debye):
    X=             -0.0000    Y=             -0.0000    Z=             -0.0000  Tot=              0.0000
 Quadrupole moment (field-independent basis, Debye-Ang):
   XX=            -24.4889   YY=            -25.6938   ZZ=            -67.7459
   XY=              0.0000   XZ=              0.0000   YZ=              0.0000

 CCSD(T)/cc-pVTZ Guess=Read SCF=(VeryTight,CDIIS,VShift=10)\\O2_O2_35\\
 92\CCSD=-299.963558\CCSD(T)=-300.0527645\RMSD=7.280e-09\PG=D*H [C*(O1O
 Normal termination of Gaussian 16 at Sat Jan 14 18:01:11 2023.
