 Gaussian 16, Revision A.03,
 Gaussian 16:  ES64L-G16RevA.03 25-Dec-2016

 -------------------------------------
 #p CCSD(T)/cc-pVTZ Guess=Read SCF=XQC
 -------------------------------------

 --------
 O2_O2_16
 --------
 Symbolic Z-matrix:
 Charge = -2 Multiplicity = 1

                         Standard orientation:
 ---------------------------------------------------------------------
 Center     Atomic      Atomic             Coordinates (Angstroms)
 Number     Number       Type             X           Y           Z
 ---------------------------------------------------------------------
      1          8           0        0.000000    0.000000    0.905844
      2          8           0        0.000000    0.000000    2.258224
      3          8           0        0.000000    0.000000   -2.258224
      4          8           0        0.000000    0.000000   -0.905844
 ---------------------------------------------------------------------

 SCF Done:  E(RHF) =  -298.891421259     A.U. after   10 cycles
 E2 =    -0.1101453411D+01 EUMP2 =    -0.29999287467036D+03
 CCSD(T)
 CCSD(T)= -0.30001496667D+03

 Unable to determine electronic state:  an orbital has unidentified symmetry.
 Alpha  occ. eigenvalues --  -20.16407 -20.16402 -20.09336 -20.09336  -0.98084
 Alpha  occ. eigenvalues --   -0.95440  -0.63729  -0.53911  -0.18141  -0.16917
 Alpha  occ. eigenvalues --   -0.13551  -0.10608  -0.06191  -0.02863   0.05120
 Alpha  occ. eigenvalues --    0.09198   0.18134
 Alpha virt. eigenvalues --    0.45247   0.80231   0.89295   1.17599   1.17939
 Alpha virt. eigenvalues --    1.18909   1.20655   1.23064   1.23843   1.27338
 Alpha virt. eigenvalues --    1.28892   1.39080   1.39477   1.43638   1.45170

 Mulliken charges:
               1
     1  O   -0.257015
     2  O   -0.742985
     3  O   -0.742985
     4  O   -0.257015
 Sum of Mulliken charges =  -2.00000

 Dipole moment (field-independent basis, Debye):
    X=             -0.0000    Y=             -0.0000    Z=             -0.0000  Tot=              0.0000
 Quadrupole moment (field-independent basis, Debye-Ang):
   XX=            -24.4852   YY=            -25.6530   ZZ=            -64.9104
   XY=              0.0000   XZ=              0.0000   YZ=              0.0000

 937205\MP4DQ=-299.920679\MP4SDQ=-299.9469941\CCSD=-299.937209\CCSD(T)=
 Normal termination of Gaussian 16 at Wed Jan  4 19:21:14 2023.
