 Gaussian 16, Revision A.03,
 Gaussian 16:  ES64L-G16RevA.03 25-Dec-2016

 ---------------------------------------------------------------
 #p ROCCSD(T)/cc-pVTZ Guess=Read SCF=(VeryTight,CDIIS,VShift=10)
 ---------------------------------------------------------------

 ---------
 O2_O2_184
 ---------
 Symbolic Z-matrix:
 Charge = -2 Multiplicity = 1

                         Standard orientation:
 ---------------------------------------------------------------------
 Center     Atomic      Atomic             Coordinates (Angstroms)
 Number     Number       Type             X           Y           Z
 ---------------------------------------------------------------------
      1          8           0        0.000000    0.000000    2.095165
      2          8           0        0.000000    0.000000    3.447545
      3          8           0        0.000000    0.000000   -3.447545
      4          8           0        0.000000    0.000000   -2.095165
 ---------------------------------------------------------------------

 SCF Done:  E(ROHF) =  -298.908922159     A.U. after    8 cycles
 E2 =    -0.1312665401D+01 EUMP2 =    -0.30022158755949D+03
 CCSD(T)
 CCSD(T)= -0.30014279578D+03

 Unable to determine electronic state:  an orbital has unidentified symmetry.
 Alpha  occ. eigenvalues --  -20.20135 -20.20134 -20.18829 -20.18828  -1.02568
 Alpha  occ. eigenvalues --   -1.02557  -0.64567  -0.64481  -0.21007  -0.20995
 Alpha  occ. eigenvalues --   -0.18319  -0.18156  -0.14568  -0.14221   0.00554
 Alpha  occ. eigenvalues --    0.00585   0.19637
 Alpha virt. eigenvalues --    0.29766   0.72601   0.75667   1.11099   1.14532
 Alpha virt. eigenvalues --    1.15367   1.15544   1.16361   1.16461   1.16529
 Alpha virt. eigenvalues --    1.23319   1.23743   1.24370   1.25235   1.25853

 Mulliken charges and spin densities:
               1          2
     1  O   -0.435489   0.000000
     2  O   -0.564511   0.000000
     3  O   -0.564511   0.000000
     4  O   -0.435489   0.000000
 Sum of Mulliken charges =  -2.00000   0.00000

 Dipole moment (field-independent basis, Debye):
    X=             -0.0000    Y=              0.0000    Z=              0.0000  Tot=              0.0000
 Quadrupole moment (field-independent basis, Debye-Ang):
   XX=            -24.2436   YY=            -25.6668   ZZ=           -109.5860
   XY=              0.0000   XZ=              0.0000   YZ=              0.0000

 CCSD(T)/cc-pVTZ Guess=Read SCF=(VeryTight,CDIIS,VShift=10)\\O2_O2_184\
 \CCSD=-300.007\CCSD(T)=-300.1427958\RMSD=3.576e-09\PG=D*H [C*(O1O1.O1O
 Normal termination of Gaussian 16 at Sat Jan 14 21:11:40 2023.
