 Gaussian 16, Revision A.03,
 Gaussian 16:  ES64L-G16RevA.03 25-Dec-2016

 ---------------------------------------------------------------
 #p ROCCSD(T)/cc-pVTZ Guess=Read SCF=(VeryTight,CDIIS,VShift=10)
 ---------------------------------------------------------------

 --------
 O2_O2_26
 --------
 Symbolic Z-matrix:
 Charge = -2 Multiplicity = 1

                         Standard orientation:
 ---------------------------------------------------------------------
 Center     Atomic      Atomic             Coordinates (Angstroms)
 Number     Number       Type             X           Y           Z
 ---------------------------------------------------------------------
      1          8           0        0.000000    0.000000    0.976637
      2          8           0        0.000000    0.000000    2.329017
      3          8           0        0.000000    0.000000   -2.329017
      4          8           0        0.000000    0.000000   -0.976637
 ---------------------------------------------------------------------

 SCF Done:  E(ROHF) =  -298.903238578     A.U. after    9 cycles
 E2 =    -0.1112696440D+01 EUMP2 =    -0.30001593501830D+03
 CCSD(T)
 CCSD(T)= -0.30003790666D+03

 Unable to determine electronic state:  an orbital has unidentified symmetry.
 Alpha  occ. eigenvalues --  -20.16708 -20.16705 -20.10523 -20.10523  -0.98016
 Alpha  occ. eigenvalues --   -0.96280  -0.62597  -0.55518  -0.17403  -0.16796
 Alpha  occ. eigenvalues --   -0.14447  -0.10566  -0.07112  -0.05708   0.04909
 Alpha  occ. eigenvalues --    0.08089   0.18801
 Alpha virt. eigenvalues --    0.43293   0.79687   0.87774   1.17051   1.17961
 Alpha virt. eigenvalues --    1.18090   1.19854   1.22384   1.23195   1.26225
 Alpha virt. eigenvalues --    1.27715   1.39129   1.39496   1.42394   1.43900

 Mulliken charges and spin densities:
               1          2
     1  O   -0.284222   0.000000
     2  O   -0.715778   0.000000
     3  O   -0.715778   0.000000
     4  O   -0.284222   0.000000
 Sum of Mulliken charges =  -2.00000   0.00000

 Dipole moment (field-independent basis, Debye):
    X=             -0.0000    Y=             -0.0000    Z=              0.0000  Tot=              0.0000
 Quadrupole moment (field-independent basis, Debye-Ang):
   XX=            -24.4961   YY=            -25.6812   ZZ=            -66.2743
   XY=              0.0000   XZ=              0.0000   YZ=              0.0000

 CCSD(T)/cc-pVTZ Guess=Read SCF=(VeryTight,CDIIS,VShift=10)\\O2_O2_26\\
 8\CCSD=-299.9541746\CCSD(T)=-300.0379067\RMSD=9.003e-09\PG=D*H [C*(O1O
 Normal termination of Gaussian 16 at Sat Jan 14 17:50:21 2023.
