 Gaussian 16, Revision A.03,
 Gaussian 16:  ES64L-G16RevA.03 25-Dec-2016

 -------------------------------------
 #p CCSD(T)/cc-pVTZ Guess=Read SCF=XQC
 -------------------------------------

 ---------
 O2_O2_176
 ---------
 Symbolic Z-matrix:
 Charge = -2 Multiplicity = 1

                         Standard orientation:
 ---------------------------------------------------------------------
 Center     Atomic      Atomic             Coordinates (Angstroms)
 Number     Number       Type             X           Y           Z
 ---------------------------------------------------------------------
      1          8           0        0.000000    0.000000    2.038531
      2          8           0        0.000000    0.000000    3.390911
      3          8           0        0.000000    0.000000   -3.390911
      4          8           0        0.000000    0.000000   -2.038531
 ---------------------------------------------------------------------

 SCF Done:  E(RHF) =  -298.908225624     A.U. after    8 cycles
 E2 =    -0.1303973560D+01 EUMP2 =    -0.30021219918442D+03
 CCSD(T)
 CCSD(T)= -0.30014010766D+03

 Unable to determine electronic state:  an orbital has unidentified symmetry.
 Alpha  occ. eigenvalues --  -20.19972 -20.19972 -20.18598 -20.18597  -1.02374
 Alpha  occ. eigenvalues --   -1.02360  -0.64371  -0.64271  -0.20814  -0.20798
 Alpha  occ. eigenvalues --   -0.18133  -0.17926  -0.14386  -0.14012   0.00747
 Alpha  occ. eigenvalues --    0.00789   0.19713
 Alpha virt. eigenvalues --    0.30099   0.72485   0.76151   1.10616   1.14750
 Alpha virt. eigenvalues --    1.15525   1.15763   1.16410   1.16520   1.16746
 Alpha virt. eigenvalues --    1.23838   1.24686   1.24983   1.25334   1.26170

 Mulliken charges:
               1
     1  O   -0.432735
     2  O   -0.567265
     3  O   -0.567265
     4  O   -0.432735
 Sum of Mulliken charges =  -2.00000

 Dipole moment (field-independent basis, Debye):
    X=             -0.0000    Y=              0.0000    Z=              0.0000  Tot=              0.0000
 Quadrupole moment (field-independent basis, Debye-Ang):
   XX=            -24.2469   YY=            -25.6680   ZZ=           -106.7084
   XY=              0.0000   XZ=              0.0000   YZ=              0.0000

 Normal termination of Gaussian 16 at Wed Jan  4 20:51:28 2023.
