 Gaussian 16, Revision A.03,
 Gaussian 16:  ES64L-G16RevA.03 25-Dec-2016

 -------------------------------------
 #p CCSD(T)/cc-pVTZ Guess=Read SCF=XQC
 -------------------------------------

 ---------
 O2_O2_278
 ---------
 Symbolic Z-matrix:
 Charge = -2 Multiplicity = 1

                         Standard orientation:
 ---------------------------------------------------------------------
 Center     Atomic      Atomic             Coordinates (Angstroms)
 Number     Number       Type             X           Y           Z
 ---------------------------------------------------------------------
      1          8           0        0.000000    0.000000    2.760619
      2          8           0        0.000000    0.000000    4.112999
      3          8           0        0.000000    0.000000   -4.112999
      4          8           0        0.000000    0.000000   -2.760619
 ---------------------------------------------------------------------

 SCF Done:  E(RHF) =  -298.917050146     A.U. after    8 cycles
 E2 =    -0.1409949364D+01 EUMP2 =    -0.30032699951022D+03
 CCSD(T)
 CCSD(T)= -0.30016762511D+03

 Unable to determine electronic state:  an orbital has unidentified symmetry.
 Alpha  occ. eigenvalues --  -20.21773 -20.21773 -20.20960 -20.20960  -1.04428
 Alpha  occ. eigenvalues --   -1.04426  -0.66451  -0.66424  -0.22864  -0.22864
 Alpha  occ. eigenvalues --   -0.20191  -0.20185  -0.16336  -0.16165  -0.01320
 Alpha  occ. eigenvalues --   -0.01319   0.18813
 Alpha virt. eigenvalues --    0.26765   0.72121   0.72233   1.11708   1.11844
 Alpha virt. eigenvalues --    1.13643   1.13645   1.14636   1.14639   1.16284
 Alpha virt. eigenvalues --    1.16435   1.22141   1.22149   1.23622   1.23630

 Mulliken charges:
               1
     1  O   -0.458198
     2  O   -0.541802
     3  O   -0.541802
     4  O   -0.458198
 Sum of Mulliken charges =  -2.00000

 Dipole moment (field-independent basis, Debye):
    X=             -0.0000    Y=              0.0000    Z=             -0.0000  Tot=              0.0000
 Quadrupole moment (field-independent basis, Debye-Ang):
   XX=            -24.2289   YY=            -25.6583   ZZ=           -148.2433
   XY=              0.0000   XZ=              0.0000   YZ=              0.0000

 Normal termination of Gaussian 16 at Wed Jan  4 21:51:19 2023.
