 Gaussian 16, Revision A.03,
 Gaussian 16:  ES64L-G16RevA.03 25-Dec-2016

 -------------------------------------
 #p CCSD(T)/cc-pVTZ Guess=Read SCF=XQC
 -------------------------------------

 --------
 O2_O2_61
 --------
 Symbolic Z-matrix:
 Charge = -2 Multiplicity = 1

                         Standard orientation:
 ---------------------------------------------------------------------
 Center     Atomic      Atomic             Coordinates (Angstroms)
 Number     Number       Type             X           Y           Z
 ---------------------------------------------------------------------
      1          8           0        0.000000    0.000000    1.224412
      2          8           0        0.000000    0.000000    2.576792
      3          8           0        0.000000    0.000000   -2.576792
      4          8           0        0.000000    0.000000   -1.224412
 ---------------------------------------------------------------------

 SCF Done:  E(RHF) =  -298.908415208     A.U. after    9 cycles
 E2 =    -0.1160339555D+01 EUMP2 =    -0.30006875476309D+03
 CCSD(T)
 CCSD(T)= -0.30008070949D+03

 Unable to determine electronic state:  an orbital has unidentified symmetry.
 Alpha  occ. eigenvalues --  -20.17582 -20.17580 -20.13537 -20.13537  -0.98897
 Alpha  occ. eigenvalues --   -0.98446  -0.61573  -0.59279  -0.17487  -0.16758
 Alpha  occ. eigenvalues --   -0.16191  -0.11567  -0.11276  -0.09576   0.03984
 Alpha  occ. eigenvalues --    0.05285   0.20008
 Alpha virt. eigenvalues --    0.38141   0.77233   0.84110   1.16028   1.16264
 Alpha virt. eigenvalues --    1.17639   1.17796   1.20424   1.21319   1.23984
 Alpha virt. eigenvalues --    1.25386   1.26544   1.37129   1.38612   1.38732

 Mulliken charges:
               1
     1  O   -0.350661
     2  O   -0.649339
     3  O   -0.649339
     4  O   -0.350661
 Sum of Mulliken charges =  -2.00000

 Dipole moment (field-independent basis, Debye):
    X=             -0.0000    Y=             -0.0000    Z=              0.0000  Tot=              0.0000
 Quadrupole moment (field-independent basis, Debye-Ang):
   XX=            -24.4274   YY=            -25.6978   ZZ=            -72.9716
   XY=              0.0000   XZ=              0.0000   YZ=              0.0000

 Normal termination of Gaussian 16 at Wed Jan  4 19:46:24 2023.
