 Gaussian 16, Revision A.03,
 Gaussian 16:  ES64L-G16RevA.03 25-Dec-2016

 -------------------------------------
 #p CCSD(T)/cc-pVTZ Guess=Read SCF=XQC
 -------------------------------------

 ---------
 O2_O2_233
 ---------
 Symbolic Z-matrix:
 Charge = -2 Multiplicity = 1

                         Standard orientation:
 ---------------------------------------------------------------------
 Center     Atomic      Atomic             Coordinates (Angstroms)
 Number     Number       Type             X           Y           Z
 ---------------------------------------------------------------------
      1          8           0        0.000000    0.000000    2.442051
      2          8           0        0.000000    0.000000    3.794431
      3          8           0        0.000000    0.000000   -3.794431
      4          8           0        0.000000    0.000000   -2.442051
 ---------------------------------------------------------------------

 SCF Done:  E(RHF) =  -298.913339887     A.U. after    8 cycles
 E2 =    -0.1364149974D+01 EUMP2 =    -0.30027748986031D+03
 CCSD(T)
 CCSD(T)= -0.30015708532D+03

 Unable to determine electronic state:  an orbital has unidentified symmetry.
 Alpha  occ. eigenvalues --  -20.21056 -20.21055 -20.20057 -20.20057  -1.03629
 Alpha  occ. eigenvalues --   -1.03624  -0.65639  -0.65599  -0.22065  -0.22063
 Alpha  occ. eigenvalues --   -0.19372  -0.19341  -0.15571  -0.15338  -0.00512
 Alpha  occ. eigenvalues --   -0.00508   0.19183
 Alpha virt. eigenvalues --    0.28026   0.72693   0.73400   1.12155   1.12963
 Alpha virt. eigenvalues --    1.14413   1.14435   1.15404   1.15426   1.16776
 Alpha virt. eigenvalues --    1.17973   1.22921   1.22998   1.24405   1.24480

 Mulliken charges:
               1
     1  O   -0.449130
     2  O   -0.550870
     3  O   -0.550870
     4  O   -0.449130
 Sum of Mulliken charges =  -2.00000

 Dipole moment (field-independent basis, Debye):
    X=             -0.0000    Y=              0.0000    Z=              0.0000  Tot=              0.0000
 Quadrupole moment (field-independent basis, Debye-Ang):
   XX=            -24.2328   YY=            -25.6614   ZZ=           -128.6269
   XY=              0.0000   XZ=              0.0000   YZ=              0.0000

 Normal termination of Gaussian 16 at Wed Jan  4 21:24:51 2023.
