 Gaussian 16, Revision A.03,
 Gaussian 16:  ES64L-G16RevA.03 25-Dec-2016

 ---------------------------------------------------------------
 #p ROCCSD(T)/cc-pVTZ Guess=Read SCF=(VeryTight,CDIIS,VShift=10)
 ---------------------------------------------------------------

 ---------
 O2_O2_171
 ---------
 Symbolic Z-matrix:
 Charge = -2 Multiplicity = 1

                         Standard orientation:
 ---------------------------------------------------------------------
 Center     Atomic      Atomic             Coordinates (Angstroms)
 Number     Number       Type             X           Y           Z
 ---------------------------------------------------------------------
      1          8           0        0.000000    0.000000    2.003135
      2          8           0        0.000000    0.000000    3.355515
      3          8           0        0.000000    0.000000   -3.355515
      4          8           0        0.000000    0.000000   -2.003135
 ---------------------------------------------------------------------

 SCF Done:  E(ROHF) =  -298.907803727     A.U. after    8 cycles
 E2 =    -0.1298485396D+01 EUMP2 =    -0.30020628912331D+03
 CCSD(T)
 CCSD(T)= -0.30013836787D+03

 Unable to determine electronic state:  an orbital has unidentified symmetry.
 Alpha  occ. eigenvalues --  -20.19870 -20.19869 -20.18448 -20.18448  -1.02249
 Alpha  occ. eigenvalues --   -1.02234  -0.64246  -0.64135  -0.20691  -0.20671
 Alpha  occ. eigenvalues --   -0.18016  -0.17776  -0.14270  -0.13877   0.00871
 Alpha  occ. eigenvalues --    0.00921   0.19760
 Alpha virt. eigenvalues --    0.30315   0.72406   0.76465   1.10282   1.14876
 Alpha virt. eigenvalues --    1.15621   1.15907   1.16395   1.16619   1.16889
 Alpha virt. eigenvalues --    1.23887   1.24905   1.25385   1.26175   1.26389

 Mulliken charges and spin densities:
               1          2
     1  O   -0.430917   0.000000
     2  O   -0.569083   0.000000
     3  O   -0.569083   0.000000
     4  O   -0.430917   0.000000
 Sum of Mulliken charges =  -2.00000   0.00000

 Dipole moment (field-independent basis, Debye):
    X=             -0.0000    Y=             -0.0000    Z=             -0.0000  Tot=              0.0000
 Quadrupole moment (field-independent basis, Debye-Ang):
   XX=            -24.2493   YY=            -25.6688   ZZ=           -104.9433
   XY=              0.0000   XZ=              0.0000   YZ=              0.0000

 CCSD(T)/cc-pVTZ Guess=Read SCF=(VeryTight,CDIIS,VShift=10)\\O2_O2_171\
 283\CCSD=-300.0042175\CCSD(T)=-300.1383679\RMSD=4.108e-09\PG=D*H [C*(O
 Normal termination of Gaussian 16 at Sat Jan 14 20:52:59 2023.
