 Gaussian 16, Revision A.03,
 Gaussian 16:  ES64L-G16RevA.03 25-Dec-2016

 -------------------------------------
 #p CCSD(T)/cc-pVTZ Guess=Read SCF=XQC
 -------------------------------------

 ---------
 O2_O2_102
 ---------
 Symbolic Z-matrix:
 Charge = -2 Multiplicity = 1

                         Standard orientation:
 ---------------------------------------------------------------------
 Center     Atomic      Atomic             Coordinates (Angstroms)
 Number     Number       Type             X           Y           Z
 ---------------------------------------------------------------------
      1          8           0        0.000000    0.000000    1.514663
      2          8           0        0.000000    0.000000    2.867043
      3          8           0        0.000000    0.000000   -2.867043
      4          8           0        0.000000    0.000000   -1.514663
 ---------------------------------------------------------------------

 SCF Done:  E(RHF) =  -298.904924500     A.U. after    9 cycles
 E2 =    -0.1216288769D+01 EUMP2 =    -0.30012121326980D+03
 CCSD(T)
 CCSD(T)= -0.30010803071D+03

 Unable to determine electronic state:  an orbital has unidentified symmetry.
 Alpha  occ. eigenvalues --  -20.18421 -20.18420 -20.15858 -20.15858  -1.00267
 Alpha  occ. eigenvalues --   -1.00158  -0.62376  -0.61720  -0.18754  -0.18558
 Alpha  occ. eigenvalues --   -0.16466  -0.14884  -0.12457  -0.11574   0.02767
 Alpha  occ. eigenvalues --    0.03201   0.20241
 Alpha virt. eigenvalues --    0.34275   0.73830   0.81088   1.11440   1.15772
 Alpha virt. eigenvalues --    1.16335   1.17488   1.17501   1.18489   1.19434
 Alpha virt. eigenvalues --    1.23564   1.25061   1.30746   1.32229   1.37809

 Mulliken charges:
               1
     1  O   -0.393772
     2  O   -0.606228
     3  O   -0.606228
     4  O   -0.393772
 Sum of Mulliken charges =  -2.00000

 Dipole moment (field-independent basis, Debye):
    X=             -0.0000    Y=              0.0000    Z=              0.0000  Tot=              0.0000
 Quadrupole moment (field-independent basis, Debye-Ang):
   XX=            -24.3269   YY=            -25.6844   ZZ=            -83.2841
   XY=              0.0000   XZ=              0.0000   YZ=              0.0000

 Normal termination of Gaussian 16 at Wed Jan  4 20:09:39 2023.
