 Gaussian 16, Revision A.03,
 Gaussian 16:  ES64L-G16RevA.03 25-Dec-2016

 -------------------------------------
 #p CCSD(T)/cc-pVTZ Guess=Read SCF=XQC
 -------------------------------------

 ---------
 O2_O2_163
 ---------
 Symbolic Z-matrix:
 Charge = -2 Multiplicity = 1

                         Standard orientation:
 ---------------------------------------------------------------------
 Center     Atomic      Atomic             Coordinates (Angstroms)
 Number     Number       Type             X           Y           Z
 ---------------------------------------------------------------------
      1          8           0        0.000000    0.000000    1.946500
      2          8           0        0.000000    0.000000    3.298880
      3          8           0        0.000000    0.000000   -3.298880
      4          8           0        0.000000    0.000000   -1.946500
 ---------------------------------------------------------------------

 SCF Done:  E(RHF) =  -298.907157400     A.U. after    8 cycles
 E2 =    -0.1289604972D+01 EUMP2 =    -0.30019676237247D+03
 CCSD(T)
 CCSD(T)= -0.30013548104D+03

 Unable to determine electronic state:  an orbital has unidentified symmetry.
 Alpha  occ. eigenvalues --  -20.19704 -20.19703 -20.18201 -20.18201  -1.02044
 Alpha  occ. eigenvalues --   -1.02026  -0.64042  -0.63909  -0.20488  -0.20462
 Alpha  occ. eigenvalues --   -0.17827  -0.17524  -0.14079  -0.13655   0.01073
 Alpha  occ. eigenvalues --    0.01140   0.19834
 Alpha virt. eigenvalues --    0.30677   0.72283   0.76984   1.09732   1.15061
 Alpha virt. eigenvalues --    1.15771   1.16149   1.16400   1.16773   1.17128
 Alpha virt. eigenvalues --    1.23946   1.25294   1.25447   1.26778   1.28336

 Mulliken charges:
               1
     1  O   -0.427834
     2  O   -0.572166
     3  O   -0.572166
     4  O   -0.427834
 Sum of Mulliken charges =  -2.00000

 Dipole moment (field-independent basis, Debye):
    X=             -0.0000    Y=             -0.0000    Z=             -0.0000  Tot=              0.0000
 Quadrupole moment (field-independent basis, Debye-Ang):
   XX=            -24.2538   YY=            -25.6701   ZZ=           -102.1727
   XY=              0.0000   XZ=              0.0000   YZ=              0.0000

 4675\MP4DQ=-299.800819\MP4SDQ=-299.8328076\CCSD=-300.0024549\CCSD(T)=-
 Normal termination of Gaussian 16 at Wed Jan  4 20:44:01 2023.
