 Gaussian 16, Revision A.03,
 Gaussian 16:  ES64L-G16RevA.03 25-Dec-2016

 ---------------------------------------------------------------
 #p ROCCSD(T)/cc-pVTZ Guess=Read SCF=(VeryTight,CDIIS,VShift=10)
 ---------------------------------------------------------------

 ---------
 O2_O2_169
 ---------
 Symbolic Z-matrix:
 Charge = -2 Multiplicity = 1

                         Standard orientation:
 ---------------------------------------------------------------------
 Center     Atomic      Atomic             Coordinates (Angstroms)
 Number     Number       Type             X           Y           Z
 ---------------------------------------------------------------------
      1          8           0        0.000000    0.000000    1.988976
      2          8           0        0.000000    0.000000    3.341356
      3          8           0        0.000000    0.000000   -3.341356
      4          8           0        0.000000    0.000000   -1.988976
 ---------------------------------------------------------------------

 SCF Done:  E(ROHF) =  -298.907638532     A.U. after    8 cycles
 E2 =    -0.1296277074D+01 EUMP2 =    -0.30020391560635D+03
 CCSD(T)
 CCSD(T)= -0.30013765831D+03

 Unable to determine electronic state:  an orbital has unidentified symmetry.
 Alpha  occ. eigenvalues --  -20.19828 -20.19828 -20.18387 -20.18387  -1.02198
 Alpha  occ. eigenvalues --   -1.02182  -0.64196  -0.64079  -0.20641  -0.20620
 Alpha  occ. eigenvalues --   -0.17969  -0.17714  -0.14223  -0.13823   0.00921
 Alpha  occ. eigenvalues --    0.00975   0.19778
 Alpha virt. eigenvalues --    0.30404   0.72375   0.76593   1.10145   1.14924
 Alpha virt. eigenvalues --    1.15659   1.15966   1.16393   1.16658   1.16947
 Alpha virt. eigenvalues --    1.23904   1.24998   1.25403   1.26482   1.26685

 Mulliken charges and spin densities:
               1          2
     1  O   -0.430167   0.000000
     2  O   -0.569833   0.000000
     3  O   -0.569833   0.000000
     4  O   -0.430167   0.000000
 Sum of Mulliken charges =  -2.00000   0.00000

 Dipole moment (field-independent basis, Debye):
    X=             -0.0000    Y=              0.0000    Z=              0.0000  Tot=              0.0000
 Quadrupole moment (field-independent basis, Debye-Ang):
   XX=            -24.2503   YY=            -25.6691   ZZ=           -104.2444
   XY=              0.0000   XZ=              0.0000   YZ=              0.0000

 CCSD(T)/cc-pVTZ Guess=Read SCF=(VeryTight,CDIIS,VShift=10)\\O2_O2_169\
 3382\CCSD=-300.0037803\CCSD(T)=-300.1376583\RMSD=4.310e-09\PG=D*H [C*(
 Normal termination of Gaussian 16 at Sat Jan 14 20:50:25 2023.
