 Gaussian 16, Revision A.03,
 Gaussian 16:  ES64L-G16RevA.03 25-Dec-2016

 -------------------------------------
 #p CCSD(T)/cc-pVTZ Guess=Read SCF=XQC
 -------------------------------------

 ---------
 O2_O2_193
 ---------
 Symbolic Z-matrix:
 Charge = -2 Multiplicity = 1

                         Standard orientation:
 ---------------------------------------------------------------------
 Center     Atomic      Atomic             Coordinates (Angstroms)
 Number     Number       Type             X           Y           Z
 ---------------------------------------------------------------------
      1          8           0        0.000000    0.000000    2.158879
      2          8           0        0.000000    0.000000    3.511259
      3          8           0        0.000000    0.000000   -3.511259
      4          8           0        0.000000    0.000000   -2.158879
 ---------------------------------------------------------------------

 SCF Done:  E(RHF) =  -298.909727535     A.U. after    8 cycles
 E2 =    -0.1322326117D+01 EUMP2 =    -0.30023205365268D+03
 CCSD(T)
 CCSD(T)= -0.30014568768D+03

 Unable to determine electronic state:  an orbital has unidentified symmetry.
 Alpha  occ. eigenvalues --  -20.20314 -20.20313 -20.19077 -20.19077  -1.02779
 Alpha  occ. eigenvalues --   -1.02770  -0.64780  -0.64707  -0.21218  -0.21209
 Alpha  occ. eigenvalues --   -0.18524  -0.18401  -0.14767  -0.14446   0.00342
 Alpha  occ. eigenvalues --    0.00365   0.19551
 Alpha virt. eigenvalues --    0.29410   0.72703   0.75157   1.11535   1.14264
 Alpha virt. eigenvalues --    1.15188   1.15313   1.16180   1.16300   1.16546
 Alpha virt. eigenvalues --    1.21775   1.23615   1.24055   1.25105   1.25538

 Mulliken charges:
               1
     1  O   -0.438380
     2  O   -0.561620
     3  O   -0.561620
     4  O   -0.438380
 Sum of Mulliken charges =  -2.00000

 Dipole moment (field-independent basis, Debye):
    X=             -0.0000    Y=              0.0000    Z=              0.0000  Tot=              0.0000
 Quadrupole moment (field-independent basis, Debye-Ang):
   XX=            -24.2406   YY=            -25.6656   ZZ=           -112.9012
   XY=              0.0000   XZ=              0.0000   YZ=              0.0000

 Normal termination of Gaussian 16 at Wed Jan  4 21:01:43 2023.
