 Gaussian 16, Revision A.03,
 Gaussian 16:  ES64L-G16RevA.03 25-Dec-2016

 -------------------------------------
 #p CCSD(T)/cc-pVTZ Guess=Read SCF=XQC
 -------------------------------------

 ---------
 O2_O2_137
 ---------
 Symbolic Z-matrix:
 Charge = -2 Multiplicity = 1

                         Standard orientation:
 ---------------------------------------------------------------------
 Center     Atomic      Atomic             Coordinates (Angstroms)
 Number     Number       Type             X           Y           Z
 ---------------------------------------------------------------------
      1          8           0        0.000000    0.000000    1.762439
      2          8           0        0.000000    0.000000    3.114819
      3          8           0        0.000000    0.000000   -3.114819
      4          8           0        0.000000    0.000000   -1.762439
 ---------------------------------------------------------------------

 SCF Done:  E(RHF) =  -298.905442867     A.U. after    8 cycles
 E2 =    -0.1259724577D+01 EUMP2 =    -0.30016516744412D+03
 CCSD(T)
 CCSD(T)= -0.30012509946D+03

 Unable to determine electronic state:  an orbital has unidentified symmetry.
 Alpha  occ. eigenvalues --  -20.19156 -20.19155 -20.17314 -20.17314  -1.01334
 Alpha  occ. eigenvalues --   -1.01297  -0.63345  -0.63096  -0.19788  -0.19726
 Alpha  occ. eigenvalues --   -0.17208  -0.16584  -0.13423  -0.12860   0.01765
 Alpha  occ. eigenvalues --    0.01920   0.20055
 Alpha virt. eigenvalues --    0.32000   0.72200   0.78734   1.08550   1.15517
 Alpha virt. eigenvalues --    1.16181   1.16655   1.17043   1.17212   1.18011
 Alpha virt. eigenvalues --    1.23930   1.25444   1.26992   1.28477   1.36395

 Mulliken charges:
               1
     1  O   -0.416017
     2  O   -0.583983
     3  O   -0.583983
     4  O   -0.416017
 Sum of Mulliken charges =  -2.00000

 Dipole moment (field-independent basis, Debye):
    X=             -0.0000    Y=              0.0000    Z=             -0.0000  Tot=              0.0000
 Quadrupole moment (field-independent basis, Debye-Ang):
   XX=            -24.2750   YY=            -25.6752   ZZ=            -93.6323
   XY=              0.0000   XZ=              0.0000   YZ=              0.0000

 Normal termination of Gaussian 16 at Wed Jan  4 20:29:13 2023.
