 Gaussian 16, Revision A.03,
 Gaussian 16:  ES64L-G16RevA.03 25-Dec-2016

 ---------------------------------------------------------------
 #p ROCCSD(T)/cc-pVTZ Guess=Read SCF=(VeryTight,CDIIS,VShift=10)
 ---------------------------------------------------------------

 ---------
 O2_O2_182
 ---------
 Symbolic Z-matrix:
 Charge = -2 Multiplicity = 1

                         Standard orientation:
 ---------------------------------------------------------------------
 Center     Atomic      Atomic             Coordinates (Angstroms)
 Number     Number       Type             X           Y           Z
 ---------------------------------------------------------------------
      1          8           0        0.000000    0.000000    2.081007
      2          8           0        0.000000    0.000000    3.433387
      3          8           0        0.000000    0.000000   -3.433387
      4          8           0        0.000000    0.000000   -2.081007
 ---------------------------------------------------------------------

 SCF Done:  E(ROHF) =  -298.908745950     A.U. after    8 cycles
 E2 =    -0.1310502210D+01 EUMP2 =    -0.30021924816060D+03
 CCSD(T)
 CCSD(T)= -0.30014213446D+03

 Unable to determine electronic state:  an orbital has unidentified symmetry.
 Alpha  occ. eigenvalues --  -20.20094 -20.20094 -20.18772 -20.18772  -1.02520
 Alpha  occ. eigenvalues --   -1.02508  -0.64518  -0.64429  -0.20960  -0.20947
 Alpha  occ. eigenvalues --   -0.18273  -0.18100  -0.14523  -0.14170   0.00602
 Alpha  occ. eigenvalues --    0.00636   0.19656
 Alpha virt. eigenvalues --    0.29848   0.72574   0.75785   1.10986   1.14588
 Alpha virt. eigenvalues --    1.15407   1.15598   1.16401   1.16445   1.16582
 Alpha virt. eigenvalues --    1.23708   1.23768   1.24445   1.25262   1.25929

 Mulliken charges and spin densities:
               1          2
     1  O   -0.434818  -0.000000
     2  O   -0.565182  -0.000000
     3  O   -0.565182  -0.000000
     4  O   -0.434818  -0.000000
 Sum of Mulliken charges =  -2.00000  -0.00000

 Dipole moment (field-independent basis, Debye):
    X=             -0.0000    Y=              0.0000    Z=              0.0000  Tot=              0.0000
 Quadrupole moment (field-independent basis, Debye-Ang):
   XX=            -24.2444   YY=            -25.6671   ZZ=           -108.8605
   XY=              0.0000   XZ=              0.0000   YZ=              0.0000

 CCSD(T)/cc-pVTZ Guess=Read SCF=(VeryTight,CDIIS,VShift=10)\\O2_O2_182\
 27\CCSD=-300.0065787\CCSD(T)=-300.1421345\RMSD=3.626e-09\PG=D*H [C*(O1
 Normal termination of Gaussian 16 at Sat Jan 14 21:09:05 2023.
