 Gaussian 16, Revision A.03,
 Gaussian 16:  ES64L-G16RevA.03 25-Dec-2016

 ---------------------------------------------------------------
 #p ROCCSD(T)/cc-pVTZ Guess=Read SCF=(VeryTight,CDIIS,VShift=10)
 ---------------------------------------------------------------

 ---------
 O2_O2_260
 ---------
 Symbolic Z-matrix:
 Charge = -2 Multiplicity = 1

                         Standard orientation:
 ---------------------------------------------------------------------
 Center     Atomic      Atomic             Coordinates (Angstroms)
 Number     Number       Type             X           Y           Z
 ---------------------------------------------------------------------
      1          8           0        0.000000    0.000000    2.633191
      2          8           0        0.000000    0.000000    3.985571
      3          8           0        0.000000    0.000000   -3.985571
      4          8           0        0.000000    0.000000   -2.633191
 ---------------------------------------------------------------------

 SCF Done:  E(ROHF) =  -298.915628562     A.U. after    8 cycles
 E2 =    -0.1391728640D+01 EUMP2 =    -0.30030735720280D+03
 CCSD(T)
 CCSD(T)= -0.30016365837D+03

 Unable to determine electronic state:  an orbital has unidentified symmetry.
 Alpha  occ. eigenvalues --  -20.21501 -20.21500 -20.20621 -20.20621  -1.04126
 Alpha  occ. eigenvalues --   -1.04123  -0.66144  -0.66114  -0.22562  -0.22562
 Alpha  occ. eigenvalues --   -0.19881  -0.19869  -0.16046  -0.15853  -0.01015
 Alpha  occ. eigenvalues --   -0.01014   0.18955
 Alpha virt. eigenvalues --    0.27238   0.72382   0.72628   1.11939   1.12231
 Alpha virt. eigenvalues --    1.13936   1.13942   1.14928   1.14935   1.16542
 Alpha virt. eigenvalues --    1.16902   1.22442   1.22462   1.23924   1.23944

 Mulliken charges and spin densities:
               1          2
     1  O   -0.454884   0.000000
     2  O   -0.545116   0.000000
     3  O   -0.545116   0.000000
     4  O   -0.454884   0.000000
 Sum of Mulliken charges =  -2.00000   0.00000

 Dipole moment (field-independent basis, Debye):
    X=             -0.0000    Y=             -0.0000    Z=              0.0000  Tot=              0.0000
 Quadrupole moment (field-independent basis, Debye-Ang):
   XX=            -24.2301   YY=            -25.6594   ZZ=           -140.1529
   XY=              0.0000   XZ=              0.0000   YZ=              0.0000

 CCSD(T)/cc-pVTZ Guess=Read SCF=(VeryTight,CDIIS,VShift=10)\\O2_O2_260\
 6156\CCSD=-300.0210052\CCSD(T)=-300.1636584\RMSD=3.611e-09\PG=D*H [C*(
 Normal termination of Gaussian 16 at Sat Jan 14 22:52:53 2023.
