 Gaussian 16, Revision A.03,
 Gaussian 16:  ES64L-G16RevA.03 25-Dec-2016

 -------------------------------------
 #p CCSD(T)/cc-pVTZ Guess=Read SCF=XQC
 -------------------------------------

 ---------
 O2_O2_267
 ---------
 Symbolic Z-matrix:
 Charge = -2 Multiplicity = 1

                         Standard orientation:
 ---------------------------------------------------------------------
 Center     Atomic      Atomic             Coordinates (Angstroms)
 Number     Number       Type             X           Y           Z
 ---------------------------------------------------------------------
      1          8           0        0.000000    0.000000    2.682746
      2          8           0        0.000000    0.000000    4.035126
      3          8           0        0.000000    0.000000   -4.035126
      4          8           0        0.000000    0.000000   -2.682746
 ---------------------------------------------------------------------

 SCF Done:  E(RHF) =  -298.916191644     A.U. after    8 cycles
 E2 =    -0.1398826997D+01 EUMP2 =    -0.30031501864150D+03
 CCSD(T)
 CCSD(T)= -0.30016523692D+03

 Unable to determine electronic state:  an orbital has unidentified symmetry.
 Alpha  occ. eigenvalues --  -20.21609 -20.21609 -20.20756 -20.20756  -1.04247
 Alpha  occ. eigenvalues --   -1.04243  -0.66266  -0.66237  -0.22682  -0.22682
 Alpha  occ. eigenvalues --   -0.20004  -0.19995  -0.16161  -0.15977  -0.01136
 Alpha  occ. eigenvalues --   -0.01135   0.18899
 Alpha virt. eigenvalues --    0.27050   0.72283   0.72466   1.11854   1.12072
 Alpha virt. eigenvalues --    1.13819   1.13824   1.14812   1.14817   1.16447
 Alpha virt. eigenvalues --    1.16706   1.22323   1.22337   1.23804   1.23818

 Mulliken charges:
               1
     1  O   -0.456218
     2  O   -0.543782
     3  O   -0.543782
     4  O   -0.456218
 Sum of Mulliken charges =  -2.00000

 Dipole moment (field-independent basis, Debye):
    X=             -0.0000    Y=              0.0000    Z=              0.0000  Tot=              0.0000
 Quadrupole moment (field-independent basis, Debye-Ang):
   XX=            -24.2296   YY=            -25.6589   ZZ=           -143.2606
   XY=              0.0000   XZ=              0.0000   YZ=              0.0000

 7942926\MP4DQ=-299.3313821\MP4SDQ=-299.3735568\CCSD=-300.0221\CCSD(T)=
 Normal termination of Gaussian 16 at Wed Jan  4 21:44:54 2023.
