 Gaussian 16, Revision A.03,
 Gaussian 16:  ES64L-G16RevA.03 25-Dec-2016

 -------------------------------------
 #p CCSD(T)/cc-pVTZ Guess=Read SCF=XQC
 -------------------------------------

 ---------
 O2_O2_209
 ---------
 Symbolic Z-matrix:
 Charge = -2 Multiplicity = 1

                         Standard orientation:
 ---------------------------------------------------------------------
 Center     Atomic      Atomic             Coordinates (Angstroms)
 Number     Number       Type             X           Y           Z
 ---------------------------------------------------------------------
      1          8           0        0.000000    0.000000    2.272148
      2          8           0        0.000000    0.000000    3.624528
      3          8           0        0.000000    0.000000   -3.624528
      4          8           0        0.000000    0.000000   -2.272148
 ---------------------------------------------------------------------

 SCF Done:  E(RHF) =  -298.911183581     A.U. after    8 cycles
 E2 =    -0.1339242909D+01 EUMP2 =    -0.30025042648956D+03
 CCSD(T)
 CCSD(T)= -0.30015051435D+03

 Unable to determine electronic state:  an orbital has unidentified symmetry.
 Alpha  occ. eigenvalues --  -20.20622 -20.20622 -20.19493 -20.19492  -1.03136
 Alpha  occ. eigenvalues --   -1.03130  -0.65140  -0.65085  -0.21573  -0.21569
 Alpha  occ. eigenvalues --   -0.18876  -0.18803  -0.15104  -0.14823  -0.00016
 Alpha  occ. eigenvalues --   -0.00004   0.19400
 Alpha virt. eigenvalues --    0.28821   0.72787   0.74352   1.12004   1.13746
 Alpha virt. eigenvalues --    1.14871   1.14936   1.15862   1.15925   1.16707
 Alpha virt. eigenvalues --    1.19759   1.23352   1.23578   1.24838   1.25061

 Mulliken charges:
               1
     1  O   -0.443053
     2  O   -0.556947
     3  O   -0.556947
     4  O   -0.443053
 Sum of Mulliken charges =  -2.00000

 Dipole moment (field-independent basis, Debye):
    X=             -0.0000    Y=              0.0000    Z=             -0.0000  Tot=              0.0000
 Quadrupole moment (field-independent basis, Debye-Ang):
   XX=            -24.2366   YY=            -25.6637   ZZ=           -118.9977
   XY=              0.0000   XZ=              0.0000   YZ=              0.0000

 Normal termination of Gaussian 16 at Wed Jan  4 21:11:06 2023.
