 Gaussian 16, Revision A.03,
 Gaussian 16:  ES64L-G16RevA.03 25-Dec-2016

 -------------------------------------
 #p CCSD(T)/cc-pVTZ Guess=Read SCF=XQC
 -------------------------------------

 -------
 O2_O2_8
 -------
 Symbolic Z-matrix:
 Charge = -2 Multiplicity = 1

                         Standard orientation:
 ---------------------------------------------------------------------
 Center     Atomic      Atomic             Coordinates (Angstroms)
 Number     Number       Type             X           Y           Z
 ---------------------------------------------------------------------
      1          8           0        0.000000    0.000000    0.849210
      2          8           0        0.000000    0.000000    2.201590
      3          8           0        0.000000    0.000000   -2.201590
      4          8           0        0.000000    0.000000   -0.849210
 ---------------------------------------------------------------------

 SCF Done:  E(RHF) =  -298.873274794     A.U. after   10 cycles
 E2 =    -0.1094536772D+01 EUMP2 =    -0.29996781156576D+03
 CCSD(T)
 CCSD(T)= -0.29998890181D+03

 Unable to determine electronic state:  an orbital has unidentified symmetry.
 Alpha  occ. eigenvalues --  -20.16189 -20.16183 -20.08222 -20.08222  -0.98453
 Alpha  occ. eigenvalues --   -0.94669  -0.65116  -0.52393  -0.18851  -0.17282
 Alpha  occ. eigenvalues --   -0.12731  -0.10859  -0.05356   0.00066   0.05273
 Alpha  occ. eigenvalues --    0.10222   0.17463
 Alpha virt. eigenvalues --    0.46997   0.80531   0.90801   1.17800   1.18223
 Alpha virt. eigenvalues --    1.19493   1.21187   1.23669   1.24423   1.28402
 Alpha virt. eigenvalues --    1.29979   1.38959   1.39155   1.44516   1.46078

 Mulliken charges:
               1
     1  O   -0.230396
     2  O   -0.769604
     3  O   -0.769604
     4  O   -0.230396
 Sum of Mulliken charges =  -2.00000

 Dipole moment (field-independent basis, Debye):
    X=             -0.0000    Y=              0.0000    Z=             -0.0000  Tot=              0.0000
 Quadrupole moment (field-independent basis, Debye-Ang):
   XX=            -24.4553   YY=            -25.6143   ZZ=            -64.0780
   XY=              0.0000   XZ=              0.0000   YZ=              0.0000

 4\MP4DQ=-299.8990433\MP4SDQ=-299.9257245\CCSD=-299.9155276\CCSD(T)=-29
 Normal termination of Gaussian 16 at Wed Jan  4 19:17:00 2023.
