 Gaussian 16, Revision A.03,
 Gaussian 16:  ES64L-G16RevA.03 25-Dec-2016

 -------------------------------------
 #p CCSD(T)/cc-pVTZ Guess=Read SCF=XQC
 -------------------------------------

 --------
 O2_O2_69
 --------
 Symbolic Z-matrix:
 Charge = -2 Multiplicity = 1

                         Standard orientation:
 ---------------------------------------------------------------------
 Center     Atomic      Atomic             Coordinates (Angstroms)
 Number     Number       Type             X           Y           Z
 ---------------------------------------------------------------------
      1          8           0        0.000000    0.000000    1.281047
      2          8           0        0.000000    0.000000    2.633427
      3          8           0        0.000000    0.000000   -2.633427
      4          8           0        0.000000    0.000000   -1.281047
 ---------------------------------------------------------------------

 SCF Done:  E(RHF) =  -298.907509581     A.U. after    9 cycles
 E2 =    -0.1171580092D+01 EUMP2 =    -0.30007908967283D+03
 CCSD(T)
 CCSD(T)= -0.30008702229D+03

 Unable to determine electronic state:  an orbital has unidentified symmetry.
 Alpha  occ. eigenvalues --  -20.17750 -20.17748 -20.14064 -20.14064  -0.99166
 Alpha  occ. eigenvalues --   -0.98829  -0.61652  -0.59868  -0.17727  -0.17163
 Alpha  occ. eigenvalues --   -0.16149  -0.12400  -0.11501  -0.10023   0.03750
 Alpha  occ. eigenvalues --    0.04806   0.20119
 Alpha virt. eigenvalues --    0.37245   0.76586   0.83459   1.15915   1.16181
 Alpha virt. eigenvalues --    1.17356   1.17633   1.20027   1.20935   1.22907
 Alpha virt. eigenvalues --    1.23750   1.25166   1.35814   1.37296   1.38575

 Mulliken charges:
               1
     1  O   -0.361241
     2  O   -0.638759
     3  O   -0.638759
     4  O   -0.361241
 Sum of Mulliken charges =  -2.00000

 Dipole moment (field-independent basis, Debye):
    X=             -0.0000    Y=             -0.0000    Z=             -0.0000  Tot=              0.0000
 Quadrupole moment (field-independent basis, Debye-Ang):
   XX=            -24.4053   YY=            -25.6954   ZZ=            -74.8109
   XY=              0.0000   XZ=              0.0000   YZ=              0.0000

 Normal termination of Gaussian 16 at Wed Jan  4 19:51:05 2023.
