 Gaussian 16, Revision A.03,
 Gaussian 16:  ES64L-G16RevA.03 25-Dec-2016

 -------------------------------------
 #p CCSD(T)/cc-pVTZ Guess=Read SCF=XQC
 -------------------------------------

 ---------
 O2_O2_252
 ---------
 Symbolic Z-matrix:
 Charge = -2 Multiplicity = 1

                         Standard orientation:
 ---------------------------------------------------------------------
 Center     Atomic      Atomic             Coordinates (Angstroms)
 Number     Number       Type             X           Y           Z
 ---------------------------------------------------------------------
      1          8           0        0.000000    0.000000    2.576557
      2          8           0        0.000000    0.000000    3.928937
      3          8           0        0.000000    0.000000   -3.928937
      4          8           0        0.000000    0.000000   -2.576557
 ---------------------------------------------------------------------

 SCF Done:  E(RHF) =  -298.914969263     A.U. after    8 cycles
 E2 =    -0.1383593415D+01 EUMP2 =    -0.30029856267814D+03
 CCSD(T)
 CCSD(T)= -0.30016179233D+03

 Unable to determine electronic state:  an orbital has unidentified symmetry.
 Alpha  occ. eigenvalues --  -20.21373 -20.21373 -20.20461 -20.20461  -1.03985
 Alpha  occ. eigenvalues --   -1.03981  -0.66001  -0.65968  -0.22421  -0.22420
 Alpha  occ. eigenvalues --   -0.19736  -0.19720  -0.15911  -0.15707  -0.00872
 Alpha  occ. eigenvalues --   -0.00870   0.19020
 Alpha virt. eigenvalues --    0.27461   0.72488   0.72831   1.12026   1.12427
 Alpha virt. eigenvalues --    1.14072   1.14081   1.15065   1.15074   1.16637
 Alpha virt. eigenvalues --    1.17159   1.22581   1.22611   1.24063   1.24093

 Mulliken charges:
               1
     1  O   -0.453284
     2  O   -0.546716
     3  O   -0.546716
     4  O   -0.453284
 Sum of Mulliken charges =  -2.00000

 Dipole moment (field-independent basis, Debye):
    X=             -0.0000    Y=             -0.0000    Z=             -0.0000  Tot=              0.0000
 Quadrupole moment (field-independent basis, Debye-Ang):
   XX=            -24.2308   YY=            -25.6599   ZZ=           -136.6615
   XY=              0.0000   XZ=              0.0000   YZ=              0.0000

 Normal termination of Gaussian 16 at Wed Jan  4 21:36:11 2023.
