 Gaussian 16, Revision A.03,
 Gaussian 16:  ES64L-G16RevA.03 25-Dec-2016

 -------------------------------------
 #p CCSD(T)/cc-pVTZ Guess=Read SCF=XQC
 -------------------------------------

 ---------
 O2_O2_280
 ---------
 Symbolic Z-matrix:
 Charge = -2 Multiplicity = 1

                         Standard orientation:
 ---------------------------------------------------------------------
 Center     Atomic      Atomic             Coordinates (Angstroms)
 Number     Number       Type             X           Y           Z
 ---------------------------------------------------------------------
      1          8           0        0.000000    0.000000    2.774777
      2          8           0        0.000000    0.000000    4.127157
      3          8           0        0.000000    0.000000   -4.127157
      4          8           0        0.000000    0.000000   -2.774777
 ---------------------------------------------------------------------

 SCF Done:  E(RHF) =  -298.917202782     A.U. after    8 cycles
 E2 =    -0.1411967820D+01 EUMP2 =    -0.30032917060210D+03
 CCSD(T)
 CCSD(T)= -0.30016804777D+03

 Unable to determine electronic state:  an orbital has unidentified symmetry.
 Alpha  occ. eigenvalues --  -20.21802 -20.21802 -20.20996 -20.20996  -1.04461
 Alpha  occ. eigenvalues --   -1.04458  -0.66483  -0.66457  -0.22896  -0.22896
 Alpha  occ. eigenvalues --   -0.20224  -0.20218  -0.16367  -0.16198  -0.01353
 Alpha  occ. eigenvalues --   -0.01352   0.18798
 Alpha virt. eigenvalues --    0.26715   0.72091   0.72193   1.11681   1.11806
 Alpha virt. eigenvalues --    1.13611   1.13614   1.14605   1.14608   1.16253
 Alpha virt. eigenvalues --    1.16390   1.22109   1.22116   1.23590   1.23597

 Mulliken charges:
               1
     1  O   -0.458543
     2  O   -0.541457
     3  O   -0.541457
     4  O   -0.458543
 Sum of Mulliken charges =  -2.00000

 Dipole moment (field-independent basis, Debye):
    X=             -0.0000    Y=              0.0000    Z=              0.0000  Tot=              0.0000
 Quadrupole moment (field-independent basis, Debye-Ang):
   XX=            -24.2288   YY=            -25.6582   ZZ=           -149.1622
   XY=              0.0000   XZ=              0.0000   YZ=              0.0000

 Normal termination of Gaussian 16 at Wed Jan  4 21:52:32 2023.
