 Gaussian 16, Revision A.03,
 Gaussian 16:  ES64L-G16RevA.03 25-Dec-2016

 -------------------------------------
 #p CCSD(T)/cc-pVTZ Guess=Read SCF=XQC
 -------------------------------------

 ---------
 O2_O2_243
 ---------
 Symbolic Z-matrix:
 Charge = -2 Multiplicity = 1

                         Standard orientation:
 ---------------------------------------------------------------------
 Center     Atomic      Atomic             Coordinates (Angstroms)
 Number     Number       Type             X           Y           Z
 ---------------------------------------------------------------------
      1          8           0        0.000000    0.000000    2.512843
      2          8           0        0.000000    0.000000    3.865223
      3          8           0        0.000000    0.000000   -3.865223
      4          8           0        0.000000    0.000000   -2.512843
 ---------------------------------------------------------------------

 SCF Done:  E(RHF) =  -298.914208078     A.U. after    8 cycles
 E2 =    -0.1374407194D+01 EUMP2 =    -0.30028861527163D+03
 CCSD(T)
 CCSD(T)= -0.30015961289D+03

 Unable to determine electronic state:  an orbital has unidentified symmetry.
 Alpha  occ. eigenvalues --  -20.21226 -20.21225 -20.20274 -20.20274  -1.03820
 Alpha  occ. eigenvalues --   -1.03816  -0.65833  -0.65797  -0.22256  -0.22255
 Alpha  occ. eigenvalues --   -0.19567  -0.19545  -0.15753  -0.15536  -0.00705
 Alpha  occ. eigenvalues --   -0.00702   0.19096
 Alpha virt. eigenvalues --    0.27723   0.72595   0.73083   1.12104   1.12669
 Alpha virt. eigenvalues --    1.14231   1.14245   1.15223   1.15237   1.16721
 Alpha virt. eigenvalues --    1.17501   1.22741   1.22788   1.24223   1.24270

 Mulliken charges:
               1
     1  O   -0.451382
     2  O   -0.548618
     3  O   -0.548618
     4  O   -0.451382
 Sum of Mulliken charges =  -2.00000

 Dipole moment (field-independent basis, Debye):
    X=             -0.0000    Y=              0.0000    Z=             -0.0000  Tot=              0.0000
 Quadrupole moment (field-independent basis, Debye-Ang):
   XX=            -24.2317   YY=            -25.6606   ZZ=           -132.8104
   XY=              0.0000   XZ=              0.0000   YZ=              0.0000

 Normal termination of Gaussian 16 at Wed Jan  4 21:30:52 2023.
