 Gaussian 16, Revision A.03,
 Gaussian 16:  ES64L-G16RevA.03 25-Dec-2016

 -------------------------------------
 #p CCSD(T)/cc-pVTZ Guess=Read SCF=XQC
 -------------------------------------

 ---------
 O2_O2_213
 ---------
 Symbolic Z-matrix:
 Charge = -2 Multiplicity = 1

                         Standard orientation:
 ---------------------------------------------------------------------
 Center     Atomic      Atomic             Coordinates (Angstroms)
 Number     Number       Type             X           Y           Z
 ---------------------------------------------------------------------
      1          8           0        0.000000    0.000000    2.300464
      2          8           0        0.000000    0.000000    3.652845
      3          8           0        0.000000    0.000000   -3.652845
      4          8           0        0.000000    0.000000   -2.300464
 ---------------------------------------------------------------------

 SCF Done:  E(RHF) =  -298.911547683     A.U. after    8 cycles
 E2 =    -0.1343428360D+01 EUMP2 =    -0.30025497604304D+03
 CCSD(T)
 CCSD(T)= -0.30015166233D+03

 Unable to determine electronic state:  an orbital has unidentified symmetry.
 Alpha  occ. eigenvalues --  -20.20697 -20.20696 -20.19591 -20.19591  -1.03222
 Alpha  occ. eigenvalues --   -1.03216  -0.65227  -0.65174  -0.21659  -0.21655
 Alpha  occ. eigenvalues --   -0.18962  -0.18898  -0.15185  -0.14913  -0.00102
 Alpha  occ. eigenvalues --   -0.00092   0.19363
 Alpha virt. eigenvalues --    0.28682   0.72789   0.74173   1.12067   1.13612
 Alpha virt. eigenvalues --    1.14793   1.14847   1.15784   1.15837   1.16738
 Alpha virt. eigenvalues --    1.19375   1.23282   1.23472   1.24767   1.24954

 Mulliken charges:
               1
     1  O   -0.444138
     2  O   -0.555862
     3  O   -0.555862
     4  O   -0.444138
 Sum of Mulliken charges =  -2.00000

 Dipole moment (field-independent basis, Debye):
    X=             -0.0000    Y=             -0.0000    Z=              0.0000  Tot=              0.0000
 Quadrupole moment (field-independent basis, Debye-Ang):
   XX=            -24.2358   YY=            -25.6633   ZZ=           -120.5622
   XY=              0.0000   XZ=              0.0000   YZ=              0.0000

 Normal termination of Gaussian 16 at Wed Jan  4 21:13:23 2023.
