 Gaussian 16, Revision A.03,
 Gaussian 16:  ES64L-G16RevA.03 25-Dec-2016

 -------------------------------------
 #p CCSD(T)/cc-pVTZ Guess=Read SCF=XQC
 -------------------------------------

 ---------
 O2_O2_221
 ---------
 Symbolic Z-matrix:
 Charge = -2 Multiplicity = 1

                         Standard orientation:
 ---------------------------------------------------------------------
 Center     Atomic      Atomic             Coordinates (Angstroms)
 Number     Number       Type             X           Y           Z
 ---------------------------------------------------------------------
      1          8           0        0.000000    0.000000    2.357099
      2          8           0        0.000000    0.000000    3.709479
      3          8           0        0.000000    0.000000   -3.709479
      4          8           0        0.000000    0.000000   -2.357099
 ---------------------------------------------------------------------

 SCF Done:  E(RHF) =  -298.912271620     A.U. after    8 cycles
 E2 =    -0.1351755095D+01 EUMP2 =    -0.30026402671435D+03
 CCSD(T)
 CCSD(T)= -0.30015389368D+03

 Unable to determine electronic state:  an orbital has unidentified symmetry.
 Alpha  occ. eigenvalues --  -20.20843 -20.20843 -20.19783 -20.19783  -1.03389
 Alpha  occ. eigenvalues --   -1.03383  -0.65396  -0.65349  -0.21825  -0.21823
 Alpha  occ. eigenvalues --   -0.19129  -0.19081  -0.15343  -0.15088  -0.00270
 Alpha  occ. eigenvalues --   -0.00263   0.19290
 Alpha virt. eigenvalues --    0.28411   0.72769   0.73839   1.12141   1.13346
 Alpha virt. eigenvalues --    1.14638   1.14677   1.15629   1.15667   1.16777
 Alpha virt. eigenvalues --    1.18723   1.23139   1.23272   1.24623   1.24754

 Mulliken charges:
               1
     1  O   -0.446219
     2  O   -0.553781
     3  O   -0.553781
     4  O   -0.446219
 Sum of Mulliken charges =  -2.00000

 Dipole moment (field-independent basis, Debye):
    X=             -0.0000    Y=              0.0000    Z=              0.0000  Tot=              0.0000
 Quadrupole moment (field-independent basis, Debye-Ang):
   XX=            -24.2345   YY=            -25.6625   ZZ=           -123.7397
   XY=              0.0000   XZ=              0.0000   YZ=              0.0000

 Normal termination of Gaussian 16 at Wed Jan  4 21:17:53 2023.
