 Gaussian 16, Revision A.03,
 Gaussian 16:  ES64L-G16RevA.03 25-Dec-2016

 -------------------------------------
 #p CCSD(T)/cc-pVTZ Guess=Read SCF=XQC
 -------------------------------------

 ---------
 O2_O2_117
 ---------
 Symbolic Z-matrix:
 Charge = -2 Multiplicity = 1

                         Standard orientation:
 ---------------------------------------------------------------------
 Center     Atomic      Atomic             Coordinates (Angstroms)
 Number     Number       Type             X           Y           Z
 ---------------------------------------------------------------------
      1          8           0        0.000000    0.000000    1.620853
      2          8           0        0.000000    0.000000    2.973233
      3          8           0        0.000000    0.000000   -2.973233
      4          8           0        0.000000    0.000000   -1.620853
 ---------------------------------------------------------------------

 SCF Done:  E(RHF) =  -298.904798653     A.U. after    9 cycles
 E2 =    -0.1235413382D+01 EUMP2 =    -0.30014021203508D+03
 CCSD(T)
 CCSD(T)= -0.30011585462D+03

 Unable to determine electronic state:  an orbital has unidentified symmetry.
 Alpha  occ. eigenvalues --  -20.18733 -20.18732 -20.16526 -20.16526  -1.00740
 Alpha  occ. eigenvalues --   -1.00672  -0.62788  -0.62361  -0.19209  -0.19088
 Alpha  occ. eigenvalues --   -0.16758  -0.15693  -0.12881  -0.12161   0.02329
 Alpha  occ. eigenvalues --    0.02612   0.20186
 Alpha virt. eigenvalues --    0.33215   0.72861   0.80081   1.09351   1.15711
 Alpha virt. eigenvalues --    1.16343   1.17060   1.17431   1.17840   1.18797
 Alpha virt. eigenvalues --    1.23727   1.25240   1.28903   1.30387   1.37406

 Mulliken charges:
               1
     1  O   -0.404449
     2  O   -0.595551
     3  O   -0.595551
     4  O   -0.404449
 Sum of Mulliken charges =  -2.00000

 Dipole moment (field-independent basis, Debye):
    X=             -0.0000    Y=             -0.0000    Z=             -0.0000  Tot=              0.0000
 Quadrupole moment (field-independent basis, Debye-Ang):
   XX=            -24.3008   YY=            -25.6801   ZZ=            -87.5551
   XY=              0.0000   XZ=              0.0000   YZ=              0.0000

 009625\MP4DQ=-299.9040296\MP4SDQ=-299.932766\CCSD=-299.991705\CCSD(T)=
 Normal termination of Gaussian 16 at Wed Jan  4 20:17:56 2023.
