 Gaussian 16, Revision A.03,
 Gaussian 16:  ES64L-G16RevA.03 25-Dec-2016

 -------------------------------------
 #p CCSD(T)/cc-pVTZ Guess=Read SCF=XQC
 -------------------------------------

 ---------
 O2_O2_181
 ---------
 Symbolic Z-matrix:
 Charge = -2 Multiplicity = 1

                         Standard orientation:
 ---------------------------------------------------------------------
 Center     Atomic      Atomic             Coordinates (Angstroms)
 Number     Number       Type             X           Y           Z
 ---------------------------------------------------------------------
      1          8           0        0.000000    0.000000    2.073927
      2          8           0        0.000000    0.000000    3.426307
      3          8           0        0.000000    0.000000   -3.426307
      4          8           0        0.000000    0.000000   -2.073927
 ---------------------------------------------------------------------

 SCF Done:  E(RHF) =  -298.908658318     A.U. after    8 cycles
 E2 =    -0.1309418197D+01 EUMP2 =    -0.30021807651560D+03
 CCSD(T)
 CCSD(T)= -0.30014180104D+03

 Unable to determine electronic state:  an orbital has unidentified symmetry.
 Alpha  occ. eigenvalues --  -20.20074 -20.20074 -20.18743 -20.18743  -1.02496
 Alpha  occ. eigenvalues --   -1.02484  -0.64494  -0.64403  -0.20936  -0.20922
 Alpha  occ. eigenvalues --   -0.18250  -0.18072  -0.14501  -0.14144   0.00626
 Alpha  occ. eigenvalues --    0.00661   0.19665
 Alpha virt. eigenvalues --    0.29889   0.72559   0.75845   1.10927   1.14616
 Alpha virt. eigenvalues --    1.15427   1.15625   1.16421   1.16438   1.16609
 Alpha virt. eigenvalues --    1.23781   1.23909   1.24484   1.25274   1.25968

 Mulliken charges:
               1
     1  O   -0.434478
     2  O   -0.565522
     3  O   -0.565522
     4  O   -0.434478
 Sum of Mulliken charges =  -2.00000

 Dipole moment (field-independent basis, Debye):
    X=             -0.0000    Y=              0.0000    Z=             -0.0000  Tot=              0.0000
 Quadrupole moment (field-independent basis, Debye-Ang):
   XX=            -24.2448   YY=            -25.6672   ZZ=           -108.4992
   XY=              0.0000   XZ=              0.0000   YZ=              0.0000

 Normal termination of Gaussian 16 at Wed Jan  4 20:54:24 2023.
