 Gaussian 16, Revision A.03,
 Gaussian 16:  ES64L-G16RevA.03 25-Dec-2016

 -------------------------------------
 #p CCSD(T)/cc-pVTZ Guess=Read SCF=XQC
 -------------------------------------

 --------
 O2_O2_19
 --------
 Symbolic Z-matrix:
 Charge = -2 Multiplicity = 1

                         Standard orientation:
 ---------------------------------------------------------------------
 Center     Atomic      Atomic             Coordinates (Angstroms)
 Number     Number       Type             X           Y           Z
 ---------------------------------------------------------------------
      1          8           0        0.000000    0.000000    0.927082
      2          8           0        0.000000    0.000000    2.279462
      3          8           0        0.000000    0.000000   -2.279462
      4          8           0        0.000000    0.000000   -0.927082
 ---------------------------------------------------------------------

 SCF Done:  E(RHF) =  -298.895980900     A.U. after   10 cycles
 E2 =    -0.1104586793D+01 EUMP2 =    -0.30000056769258D+03
 CCSD(T)
 CCSD(T)= -0.30002277311D+03

 Unable to determine electronic state:  an orbital has unidentified symmetry.
 Alpha  occ. eigenvalues --  -20.16497 -20.16493 -20.09713 -20.09713  -0.98030
 Alpha  occ. eigenvalues --   -0.95706  -0.63327  -0.54426  -0.17901  -0.16850
 Alpha  occ. eigenvalues --   -0.13834  -0.10571  -0.06481  -0.03800   0.05060
 Alpha  occ. eigenvalues --    0.08846   0.18353
 Alpha virt. eigenvalues --    0.44634   0.80083   0.88802   1.17413   1.17957
 Alpha virt. eigenvalues --    1.18667   1.20423   1.22852   1.23640   1.26979
 Alpha virt. eigenvalues --    1.28515   1.39106   1.39532   1.43281   1.44803

 Mulliken charges:
               1
     1  O   -0.265770
     2  O   -0.734230
     3  O   -0.734230
     4  O   -0.265770
 Sum of Mulliken charges =  -2.00000

 Dipole moment (field-independent basis, Debye):
    X=             -0.0000    Y=              0.0000    Z=             -0.0000  Tot=              0.0000
 Quadrupole moment (field-independent basis, Debye-Ang):
   XX=            -24.4911   YY=            -25.6634   ZZ=            -65.2856
   XY=              0.0000   XZ=              0.0000   YZ=              0.0000

 Normal termination of Gaussian 16 at Wed Jan  4 19:22:48 2023.
