 Gaussian 16, Revision A.03,
 Gaussian 16:  ES64L-G16RevA.03 25-Dec-2016

 ---------------------------------------------------------------
 #p ROCCSD(T)/cc-pVTZ Guess=Read SCF=(VeryTight,CDIIS,VShift=10)
 ---------------------------------------------------------------

 --------
 O2_O2_33
 --------
 Symbolic Z-matrix:
 Charge = -2 Multiplicity = 1

                         Standard orientation:
 ---------------------------------------------------------------------
 Center     Atomic      Atomic             Coordinates (Angstroms)
 Number     Number       Type             X           Y           Z
 ---------------------------------------------------------------------
      1          8           0        0.000000    0.000000    1.026192
      2          8           0        0.000000    0.000000    2.378572
      3          8           0        0.000000    0.000000   -2.378572
      4          8           0        0.000000    0.000000   -1.026192
 ---------------------------------------------------------------------

 SCF Done:  E(ROHF) =  -298.907124107     A.U. after    9 cycles
 E2 =    -0.1121592475D+01 EUMP2 =    -0.30002871658169D+03
 CCSD(T)
 CCSD(T)= -0.30004981010D+03

 Unable to determine electronic state:  an orbital has unidentified symmetry.
 Alpha  occ. eigenvalues --  -20.16909 -20.16906 -20.11247 -20.11247  -0.98107
 Alpha  occ. eigenvalues --   -0.96798  -0.62107  -0.56473  -0.16997  -0.16842
 Alpha  occ. eigenvalues --   -0.15000  -0.10638  -0.07688  -0.07294   0.04744
 Alpha  occ. eigenvalues --    0.07409   0.19166
 Alpha virt. eigenvalues --    0.42069   0.79246   0.86881   1.16765   1.17543
 Alpha virt. eigenvalues --    1.17941   1.19291   1.21949   1.22780   1.25587
 Alpha virt. eigenvalues --    1.27035   1.39016   1.39107   1.41441   1.42933

 Mulliken charges and spin densities:
               1          2
     1  O   -0.300537   0.000000
     2  O   -0.699463   0.000000
     3  O   -0.699463   0.000000
     4  O   -0.300537   0.000000
 Sum of Mulliken charges =  -2.00000   0.00000

 Dipole moment (field-independent basis, Debye):
    X=             -0.0000    Y=              0.0000    Z=             -0.0000  Tot=              0.0000
 Quadrupole moment (field-independent basis, Debye-Ang):
   XX=            -24.4916   YY=            -25.6918   ZZ=            -67.4013
   XY=              0.0000   XZ=              0.0000   YZ=              0.0000

 CCSD(T)/cc-pVTZ Guess=Read SCF=(VeryTight,CDIIS,VShift=10)\\O2_O2_33\\
 877\CCSD=-299.9618135\CCSD(T)=-300.0498101\RMSD=7.631e-09\PG=D*H [C*(O
 Normal termination of Gaussian 16 at Sat Jan 14 17:58:41 2023.
