 Gaussian 16, Revision A.03,
 Gaussian 16:  ES64L-G16RevA.03 25-Dec-2016

 ---------------------------------------------------------------
 #p ROCCSD(T)/cc-pVTZ Guess=Read SCF=(VeryTight,CDIIS,VShift=10)
 ---------------------------------------------------------------

 ---------
 O2_O2_186
 ---------
 Symbolic Z-matrix:
 Charge = -2 Multiplicity = 1

                         Standard orientation:
 ---------------------------------------------------------------------
 Center     Atomic      Atomic             Coordinates (Angstroms)
 Number     Number       Type             X           Y           Z
 ---------------------------------------------------------------------
      1          8           0        0.000000    0.000000    2.109323
      2          8           0        0.000000    0.000000    3.461704
      3          8           0        0.000000    0.000000   -3.461704
      4          8           0        0.000000    0.000000   -2.109323
 ---------------------------------------------------------------------

 SCF Done:  E(ROHF) =  -298.909099522     A.U. after    8 cycles
 E2 =    -0.1314822419D+01 EUMP2 =    -0.30022392194053D+03
 CCSD(T)
 CCSD(T)= -0.30014345015D+03

 Unable to determine electronic state:  an orbital has unidentified symmetry.
 Alpha  occ. eigenvalues --  -20.20175 -20.20174 -20.18885 -20.18885  -1.02616
 Alpha  occ. eigenvalues --   -1.02605  -0.64615  -0.64532  -0.21055  -0.21044
 Alpha  occ. eigenvalues --   -0.18365  -0.18212  -0.14613  -0.14272   0.00506
 Alpha  occ. eigenvalues --    0.00535   0.19618
 Alpha virt. eigenvalues --    0.29685   0.72626   0.75550   1.11207   1.14474
 Alpha virt. eigenvalues --    1.15328   1.15492   1.16321   1.16477   1.16478
 Alpha virt. eigenvalues --    1.22947   1.23716   1.24296   1.25208   1.25780

 Mulliken charges and spin densities:
               1          2
     1  O   -0.436150   0.000000
     2  O   -0.563850   0.000000
     3  O   -0.563850   0.000000
     4  O   -0.436150   0.000000
 Sum of Mulliken charges =  -2.00000   0.00000

 Dipole moment (field-independent basis, Debye):
    X=             -0.0000    Y=             -0.0000    Z=             -0.0000  Tot=              0.0000
 Quadrupole moment (field-independent basis, Debye-Ang):
   XX=            -24.2429   YY=            -25.6665   ZZ=           -110.3156
   XY=              0.0000   XZ=              0.0000   YZ=              0.0000

 CCSD(T)/cc-pVTZ Guess=Read SCF=(VeryTight,CDIIS,VShift=10)\\O2_O2_186\
 1408\CCSD=-300.0074187\CCSD(T)=-300.1434502\RMSD=3.529e-09\PG=D*H [C*(
 Normal termination of Gaussian 16 at Sat Jan 14 21:14:13 2023.
