 Gaussian 16, Revision A.03,
 Gaussian 16:  ES64L-G16RevA.03 25-Dec-2016

 -------------------------------------
 #p CCSD(T)/cc-pVTZ Guess=Read SCF=XQC
 -------------------------------------

 ---------
 O2_O2_205
 ---------
 Symbolic Z-matrix:
 Charge = -2 Multiplicity = 1

                         Standard orientation:
 ---------------------------------------------------------------------
 Center     Atomic      Atomic             Coordinates (Angstroms)
 Number     Number       Type             X           Y           Z
 ---------------------------------------------------------------------
      1          8           0        0.000000    0.000000    2.243830
      2          8           0        0.000000    0.000000    3.596210
      3          8           0        0.000000    0.000000   -3.596210
      4          8           0        0.000000    0.000000   -2.243830
 ---------------------------------------------------------------------

 SCF Done:  E(RHF) =  -298.910818815     A.U. after    8 cycles
 E2 =    -0.1335041129D+01 EUMP2 =    -0.30024585994340D+03
 CCSD(T)
 CCSD(T)= -0.30014934336D+03

 Unable to determine electronic state:  an orbital has unidentified symmetry.
 Alpha  occ. eigenvalues --  -20.20546 -20.20546 -20.19392 -20.19392  -1.03049
 Alpha  occ. eigenvalues --   -1.03042  -0.65052  -0.64993  -0.21487  -0.21481
 Alpha  occ. eigenvalues --   -0.18790  -0.18707  -0.15021  -0.14731   0.00072
 Alpha  occ. eigenvalues --    0.00086   0.19438
 Alpha virt. eigenvalues --    0.28963   0.72778   0.74540   1.11921   1.13879
 Alpha virt. eigenvalues --    1.14950   1.15026   1.15941   1.16015   1.16671
 Alpha virt. eigenvalues --    1.20186   1.23421   1.23689   1.24908   1.25172

 Mulliken charges:
               1
     1  O   -0.441936
     2  O   -0.558064
     3  O   -0.558064
     4  O   -0.441936
 Sum of Mulliken charges =  -2.00000

 Dipole moment (field-independent basis, Debye):
    X=             -0.0000    Y=             -0.0000    Z=             -0.0000  Tot=              0.0000
 Quadrupole moment (field-independent basis, Debye-Ang):
   XX=            -24.2375   YY=            -25.6641   ZZ=           -117.4493
   XY=              0.0000   XZ=              0.0000   YZ=              0.0000

 19099\MP4DQ=-299.6525226\MP4SDQ=-299.688269\CCSD=-300.0112656\CCSD(T)=
 Normal termination of Gaussian 16 at Wed Jan  4 21:08:44 2023.
