 Gaussian 16, Revision A.03,
 Gaussian 16:  ES64L-G16RevA.03 25-Dec-2016

 ---------------------------------------------------------------
 #p ROCCSD(T)/cc-pVTZ Guess=Read SCF=(VeryTight,CDIIS,VShift=10)
 ---------------------------------------------------------------

 ---------
 O2_O2_199
 ---------
 Symbolic Z-matrix:
 Charge = -2 Multiplicity = 1

                         Standard orientation:
 ---------------------------------------------------------------------
 Center     Atomic      Atomic             Coordinates (Angstroms)
 Number     Number       Type             X           Y           Z
 ---------------------------------------------------------------------
      1          8           0        0.000000    0.000000    2.201354
      2          8           0        0.000000    0.000000    3.553735
      3          8           0        0.000000    0.000000   -3.553735
      4          8           0        0.000000    0.000000   -2.201354
 ---------------------------------------------------------------------

 SCF Done:  E(ROHF) =  -298.910271905     A.U. after    8 cycles
 E2 =    -0.1328705453D+01 EUMP2 =    -0.30023897735771D+03
 CCSD(T)
 CCSD(T)= -0.30014754423D+03

 Unable to determine electronic state:  an orbital has unidentified symmetry.
 Alpha  occ. eigenvalues --  -20.20431 -20.20431 -20.19237 -20.19237  -1.02916
 Alpha  occ. eigenvalues --   -1.02908  -0.64918  -0.64852  -0.21354  -0.21347
 Alpha  occ. eigenvalues --   -0.18658  -0.18557  -0.14896  -0.14591   0.00206
 Alpha  occ. eigenvalues --    0.00223   0.19494
 Alpha virt. eigenvalues --    0.29183   0.72750   0.74839   1.11755   1.14075
 Alpha virt. eigenvalues --    1.15069   1.15167   1.16060   1.16154   1.16610
 Alpha virt. eigenvalues --    1.20919   1.23520   1.23865   1.25009   1.25348

 Mulliken charges and spin densities:
               1          2
     1  O   -0.440198   0.000000
     2  O   -0.559802   0.000000
     3  O   -0.559802   0.000000
     4  O   -0.440198   0.000000
 Sum of Mulliken charges =  -2.00000   0.00000

 Dipole moment (field-independent basis, Debye):
    X=             -0.0000    Y=              0.0000    Z=              0.0000  Tot=              0.0000
 Quadrupole moment (field-independent basis, Debye-Ang):
   XX=            -24.2389   YY=            -25.6648   ZZ=           -115.1571
   XY=              0.0000   XZ=              0.0000   YZ=              0.0000

 CCSD(T)/cc-pVTZ Guess=Read SCF=(VeryTight,CDIIS,VShift=10)\\O2_O2_199\
 1465\CCSD=-300.0100775\CCSD(T)=-300.1475442\RMSD=3.496e-09\PG=D*H [C*(
 Normal termination of Gaussian 16 at Sat Jan 14 21:31:28 2023.
