 Gaussian 16, Revision A.03,
 Gaussian 16:  ES64L-G16RevA.03 25-Dec-2016

 -------------------------------------
 #p CCSD(T)/cc-pVTZ Guess=Read SCF=XQC
 -------------------------------------

 ---------
 O2_O2_295
 ---------
 Symbolic Z-matrix:
 Charge = -2 Multiplicity = 1

                         Standard orientation:
 ---------------------------------------------------------------------
 Center     Atomic      Atomic             Coordinates (Angstroms)
 Number     Number       Type             X           Y           Z
 ---------------------------------------------------------------------
      1          8           0        0.000000    0.000000    2.880967
      2          8           0        0.000000    0.000000    4.233347
      3          8           0        0.000000    0.000000   -4.233347
      4          8           0        0.000000    0.000000   -2.880967
 ---------------------------------------------------------------------

 SCF Done:  E(RHF) =  -298.918314212     A.U. after    8 cycles
 E2 =    -0.1427074362D+01 EUMP2 =    -0.30034538857369D+03
 CCSD(T)
 CCSD(T)= -0.30017110765D+03

 Unable to determine electronic state:  an orbital has unidentified symmetry.
 Alpha  occ. eigenvalues --  -20.22014 -20.22014 -20.21256 -20.21256  -1.04694
 Alpha  occ. eigenvalues --   -1.04692  -0.66720  -0.66697  -0.23129  -0.23129
 Alpha  occ. eigenvalues --   -0.20465  -0.20461  -0.16592  -0.16438  -0.01589
 Alpha  occ. eigenvalues --   -0.01588   0.18688
 Alpha virt. eigenvalues --    0.26351   0.71864   0.71914   1.11471   1.11534
 Alpha virt. eigenvalues --    1.13384   1.13385   1.14378   1.14379   1.16016
 Alpha virt. eigenvalues --    1.16080   1.21873   1.21877   1.23354   1.23357

 Mulliken charges:
               1
     1  O   -0.461005
     2  O   -0.538995
     3  O   -0.538995
     4  O   -0.461005
 Sum of Mulliken charges =  -2.00000

 Dipole moment (field-independent basis, Debye):
    X=             -0.0000    Y=              0.0000    Z=             -0.0000  Tot=              0.0000
 Quadrupole moment (field-independent basis, Debye-Ang):
   XX=            -24.2279   YY=            -25.6574   ZZ=           -156.1814
   XY=              0.0000   XZ=              0.0000   YZ=              0.0000

 Normal termination of Gaussian 16 at Wed Jan  4 22:01:55 2023.
