 Gaussian 16, Revision A.03,
 Gaussian 16:  ES64L-G16RevA.03 25-Dec-2016

 ---------------------------------------------------------------
 #p ROCCSD(T)/cc-pVTZ Guess=Read SCF=(VeryTight,CDIIS,VShift=10)
 ---------------------------------------------------------------

 --------
 O2_O2_56
 --------
 Symbolic Z-matrix:
 Charge = -2 Multiplicity = 1

                         Standard orientation:
 ---------------------------------------------------------------------
 Center     Atomic      Atomic             Coordinates (Angstroms)
 Number     Number       Type             X           Y           Z
 ---------------------------------------------------------------------
      1          8           0        0.000000    0.000000    1.189016
      2          8           0        0.000000    0.000000    2.541396
      3          8           0        0.000000    0.000000   -2.541396
      4          8           0        0.000000    0.000000   -1.189016
 ---------------------------------------------------------------------

 SCF Done:  E(ROHF) =  -298.908904516     A.U. after    9 cycles
 E2 =    -0.1153290367D+01 EUMP2 =    -0.30006219488294D+03
 CCSD(T)
 CCSD(T)= -0.30007637696D+03

 Unable to determine electronic state:  an orbital has unidentified symmetry.
 Alpha  occ. eigenvalues --  -20.17474 -20.17472 -20.13184 -20.13184  -0.98733
 Alpha  occ. eigenvalues --   -0.98191  -0.61559  -0.58872  -0.17343  -0.16486
 Alpha  occ. eigenvalues --   -0.16253  -0.11141  -0.10979  -0.09279   0.04129
 Alpha  occ. eigenvalues --    0.05609   0.19914
 Alpha virt. eigenvalues --    0.38746   0.77620   0.84541   1.16121   1.16372
 Alpha virt. eigenvalues --    1.17745   1.17952   1.20678   1.21564   1.24176
 Alpha virt. eigenvalues --    1.25573   1.29056   1.37943   1.38821   1.39425

 Mulliken charges and spin densities:
               1          2
     1  O   -0.343296   0.000000
     2  O   -0.656704   0.000000
     3  O   -0.656704   0.000000
     4  O   -0.343296   0.000000
 Sum of Mulliken charges =  -2.00000   0.00000

 Dipole moment (field-independent basis, Debye):
    X=             -0.0000    Y=             -0.0000    Z=              0.0000  Tot=              0.0000
 Quadrupole moment (field-independent basis, Debye-Ang):
   XX=            -24.4413   YY=            -25.6990   ZZ=            -71.8717
   XY=              0.0000   XZ=              0.0000   YZ=              0.0000

 CCSD(T)/cc-pVTZ Guess=Read SCF=(VeryTight,CDIIS,VShift=10)\\O2_O2_56\\
 621\CCSD=-299.9752358\CCSD(T)=-300.076377\RMSD=4.547e-09\PG=D*H [C*(O1
 Normal termination of Gaussian 16 at Sat Jan 14 18:27:20 2023.
