 Gaussian 16, Revision A.03,
 Gaussian 16:  ES64L-G16RevA.03 25-Dec-2016

 ---------------------------------------------------------------
 #p ROCCSD(T)/cc-pVTZ Guess=Read SCF=(VeryTight,CDIIS,VShift=10)
 ---------------------------------------------------------------

 ---------
 O2_O2_131
 ---------
 Symbolic Z-matrix:
 Charge = -2 Multiplicity = 1

                         Standard orientation:
 ---------------------------------------------------------------------
 Center     Atomic      Atomic             Coordinates (Angstroms)
 Number     Number       Type             X           Y           Z
 ---------------------------------------------------------------------
      1          8           0        0.000000    0.000000    1.719962
      2          8           0        0.000000    0.000000    3.072343
      3          8           0        0.000000    0.000000   -3.072343
      4          8           0        0.000000    0.000000   -1.719962
 ---------------------------------------------------------------------

 SCF Done:  E(ROHF) =  -298.905170481     A.U. after    9 cycles
 E2 =    -0.1252565929D+01 EUMP2 =    -0.30015773641073D+03
 CCSD(T)
 CCSD(T)= -0.30012245413D+03

 Unable to determine electronic state:  an orbital has unidentified symmetry.
 Alpha  occ. eigenvalues --  -20.19028 -20.19028 -20.17088 -20.17088  -1.01160
 Alpha  occ. eigenvalues --   -1.01116  -0.63179  -0.62887  -0.19618  -0.19542
 Alpha  occ. eigenvalues --   -0.17069  -0.16335  -0.13264  -0.12660   0.01931
 Alpha  occ. eigenvalues --    0.02118   0.20100
 Alpha virt. eigenvalues --    0.32344   0.72318   0.79140   1.08583   1.15590
 Alpha virt. eigenvalues --    1.16248   1.16759   1.17273   1.17292   1.18238
 Alpha virt. eigenvalues --    1.23882   1.25397   1.27503   1.28987   1.36902

 Mulliken charges and spin densities:
               1          2
     1  O   -0.412814   0.000000
     2  O   -0.587186   0.000000
     3  O   -0.587186   0.000000
     4  O   -0.412814   0.000000
 Sum of Mulliken charges =  -2.00000   0.00000

 Dipole moment (field-independent basis, Debye):
    X=             -0.0000    Y=              0.0000    Z=             -0.0000  Tot=              0.0000
 Quadrupole moment (field-independent basis, Debye-Ang):
   XX=            -24.2818   YY=            -25.6766   ZZ=            -91.7638
   XY=              0.0000   XZ=              0.0000   YZ=              0.0000

 CCSD(T)/cc-pVTZ Guess=Read SCF=(VeryTight,CDIIS,VShift=10)\\O2_O2_131\
 6133\CCSD=-299.9950689\CCSD(T)=-300.1224541\RMSD=1.493e-09\PG=D*H [C*(
 Normal termination of Gaussian 16 at Sat Jan 14 20:00:48 2023.
