 Gaussian 16, Revision A.03,
 Gaussian 16:  ES64L-G16RevA.03 25-Dec-2016

 ---------------------------------------------------------------
 #p ROCCSD(T)/cc-pVTZ Guess=Read SCF=(VeryTight,CDIIS,VShift=10)
 ---------------------------------------------------------------

 ---------
 O2_O2_126
 ---------
 Symbolic Z-matrix:
 Charge = -2 Multiplicity = 1

                         Standard orientation:
 ---------------------------------------------------------------------
 Center     Atomic      Atomic             Coordinates (Angstroms)
 Number     Number       Type             X           Y           Z
 ---------------------------------------------------------------------
      1          8           0        0.000000    0.000000    1.684566
      2          8           0        0.000000    0.000000    3.036946
      3          8           0        0.000000    0.000000   -3.036946
      4          8           0        0.000000    0.000000   -1.684566
 ---------------------------------------------------------------------

 SCF Done:  E(ROHF) =  -298.904991645     A.U. after    9 cycles
 E2 =    -0.1246514294D+01 EUMP2 =    -0.30015150593891D+03
 CCSD(T)
 CCSD(T)= -0.30012016832D+03

 Unable to determine electronic state:  an orbital has unidentified symmetry.
 Alpha  occ. eigenvalues --  -20.18923 -20.18922 -20.16894 -20.16893  -1.01012
 Alpha  occ. eigenvalues --   -1.00961  -0.63039  -0.62706  -0.19474  -0.19384
 Alpha  occ. eigenvalues --   -0.16955  -0.16116  -0.13129  -0.12487   0.02072
 Alpha  occ. eigenvalues --    0.02289   0.20133
 Alpha virt. eigenvalues --    0.32643   0.72468   0.79477   1.08738   1.15641
 Alpha virt. eigenvalues --    1.16293   1.16857   1.17350   1.17471   1.18433
 Alpha virt. eigenvalues --    1.23832   1.25347   1.27968   1.29453   1.37118

 Mulliken charges and spin densities:
               1          2
     1  O   -0.409979   0.000000
     2  O   -0.590021   0.000000
     3  O   -0.590021   0.000000
     4  O   -0.409979   0.000000
 Sum of Mulliken charges =  -2.00000   0.00000

 Dipole moment (field-independent basis, Debye):
    X=             -0.0000    Y=              0.0000    Z=              0.0000  Tot=              0.0000
 Quadrupole moment (field-independent basis, Debye-Ang):
   XX=            -24.2880   YY=            -25.6778   ZZ=            -90.2363
   XY=              0.0000   XZ=              0.0000   YZ=              0.0000

 CCSD(T)/cc-pVTZ Guess=Read SCF=(VeryTight,CDIIS,VShift=10)\\O2_O2_126\
 85\CCSD=-299.9938745\CCSD(T)=-300.1201683\RMSD=1.596e-09\PG=D*H [C*(O1
 Normal termination of Gaussian 16 at Sat Jan 14 19:54:21 2023.
