 Gaussian 16, Revision A.03,
 Gaussian 16:  ES64L-G16RevA.03 25-Dec-2016

 -------------------------------------
 #p CCSD(T)/cc-pVTZ Guess=Read SCF=XQC
 -------------------------------------

 ---------
 O2_O2_158
 ---------
 Symbolic Z-matrix:
 Charge = -2 Multiplicity = 1

                         Standard orientation:
 ---------------------------------------------------------------------
 Center     Atomic      Atomic             Coordinates (Angstroms)
 Number     Number       Type             X           Y           Z
 ---------------------------------------------------------------------
      1          8           0        0.000000    0.000000    1.911104
      2          8           0        0.000000    0.000000    3.263484
      3          8           0        0.000000    0.000000   -3.263484
      4          8           0        0.000000    0.000000   -1.911104
 ---------------------------------------------------------------------

 SCF Done:  E(RHF) =  -298.906775724     A.U. after    8 cycles
 E2 =    -0.1283987032D+01 EUMP2 =    -0.30019076275624D+03
 CCSD(T)
 CCSD(T)= -0.30013360884D+03

 Unable to determine electronic state:  an orbital has unidentified symmetry.
 Alpha  occ. eigenvalues --  -20.19599 -20.19599 -20.18040 -20.18040  -1.01913
 Alpha  occ. eigenvalues --   -1.01892  -0.63912  -0.63763  -0.20358  -0.20328
 Alpha  occ. eigenvalues --   -0.17707  -0.17358  -0.13958  -0.13510   0.01202
 Alpha  occ. eigenvalues --    0.01281   0.19879
 Alpha virt. eigenvalues --    0.30912   0.72217   0.77315   1.09401   1.15166
 Alpha virt. eigenvalues --    1.15861   1.16308   1.16422   1.16866   1.17285
 Alpha virt. eigenvalues --    1.23968   1.25472   1.25565   1.27049   1.29849

 Mulliken charges:
               1
     1  O   -0.425788
     2  O   -0.574212
     3  O   -0.574212
     4  O   -0.425788
 Sum of Mulliken charges =  -2.00000

 Dipole moment (field-independent basis, Debye):
    X=             -0.0000    Y=             -0.0000    Z=              0.0000  Tot=              0.0000
 Quadrupole moment (field-independent basis, Debye-Ang):
   XX=            -24.2570   YY=            -25.6710   ZZ=           -100.4749
   XY=              0.0000   XZ=              0.0000   YZ=              0.0000

 Normal termination of Gaussian 16 at Wed Jan  4 20:41:13 2023.
