 Gaussian 16, Revision A.03,
 Gaussian 16:  ES64L-G16RevA.03 25-Dec-2016

 ---------------------------------------------------------------
 #p ROCCSD(T)/cc-pVTZ Guess=Read SCF=(VeryTight,CDIIS,VShift=10)
 ---------------------------------------------------------------

 ---------
 O2_O2_198
 ---------
 Symbolic Z-matrix:
 Charge = -2 Multiplicity = 1

                         Standard orientation:
 ---------------------------------------------------------------------
 Center     Atomic      Atomic             Coordinates (Angstroms)
 Number     Number       Type             X           Y           Z
 ---------------------------------------------------------------------
      1          8           0        0.000000    0.000000    2.194275
      2          8           0        0.000000    0.000000    3.546655
      3          8           0        0.000000    0.000000   -3.546655
      4          8           0        0.000000    0.000000   -2.194275
 ---------------------------------------------------------------------

 SCF Done:  E(ROHF) =  -298.910180925     A.U. after    8 cycles
 E2 =    -0.1327645352D+01 EUMP2 =    -0.30023782627648D+03
 CCSD(T)
 CCSD(T)= -0.30014723779D+03

 Unable to determine electronic state:  an orbital has unidentified symmetry.
 Alpha  occ. eigenvalues --  -20.20412 -20.20411 -20.19211 -20.19211  -1.02893
 Alpha  occ. eigenvalues --   -1.02885  -0.64895  -0.64828  -0.21331  -0.21324
 Alpha  occ. eigenvalues --   -0.18636  -0.18531  -0.14874  -0.14567   0.00228
 Alpha  occ. eigenvalues --    0.00247   0.19504
 Alpha virt. eigenvalues --    0.29220   0.72743   0.74890   1.11723   1.14107
 Alpha virt. eigenvalues --    1.15089   1.15191   1.16080   1.16178   1.16599
 Alpha virt. eigenvalues --    1.21053   1.23536   1.23896   1.25025   1.25379

 Mulliken charges and spin densities:
               1          2
     1  O   -0.439901   0.000000
     2  O   -0.560099   0.000000
     3  O   -0.560099   0.000000
     4  O   -0.439901   0.000000
 Sum of Mulliken charges =  -2.00000   0.00000

 Dipole moment (field-independent basis, Debye):
    X=             -0.0000    Y=             -0.0000    Z=              0.0000  Tot=              0.0000
 Quadrupole moment (field-independent basis, Debye-Ang):
   XX=            -24.2392   YY=            -25.6649   ZZ=           -114.7786
   XY=              0.0000   XZ=              0.0000   YZ=              0.0000

 CCSD(T)/cc-pVTZ Guess=Read SCF=(VeryTight,CDIIS,VShift=10)\\O2_O2_198\
 94\CCSD=-300.0098765\CCSD(T)=-300.1472378\RMSD=3.474e-09\PG=D*H [C*(O1
 Normal termination of Gaussian 16 at Sat Jan 14 21:30:16 2023.
