 Gaussian 16, Revision A.03,
 Gaussian 16:  ES64L-G16RevA.03 25-Dec-2016

 -------------------------------------
 #p CCSD(T)/cc-pVTZ Guess=Read SCF=XQC
 -------------------------------------

 --------
 O2_O2_30
 --------
 Symbolic Z-matrix:
 Charge = -2 Multiplicity = 1

                         Standard orientation:
 ---------------------------------------------------------------------
 Center     Atomic      Atomic             Coordinates (Angstroms)
 Number     Number       Type             X           Y           Z
 ---------------------------------------------------------------------
      1          8           0        0.000000    0.000000    1.004954
      2          8           0        0.000000    0.000000    2.357334
      3          8           0        0.000000    0.000000   -2.357334
      4          8           0        0.000000    0.000000   -1.004954
 ---------------------------------------------------------------------

 SCF Done:  E(RHF) =  -298.905781697     A.U. after    9 cycles
 E2 =    -0.1117705217D+01 EUMP2 =    -0.30002348691420D+03
 CCSD(T)
 CCSD(T)= -0.30004503410D+03

 Unable to determine electronic state:  an orbital has unidentified symmetry.
 Alpha  occ. eigenvalues --  -20.16825 -20.16822 -20.10947 -20.10947  -0.98058
 Alpha  occ. eigenvalues --   -0.96583  -0.62292  -0.56079  -0.17160  -0.16812
 Alpha  occ. eigenvalues --   -0.14770  -0.10600  -0.07448  -0.06649   0.04816
 Alpha  occ. eigenvalues --    0.07691   0.19019
 Alpha virt. eigenvalues --    0.42580   0.79439   0.87249   1.16880   1.17771
 Alpha virt. eigenvalues --    1.17951   1.19528   1.22132   1.22954   1.25847
 Alpha virt. eigenvalues --    1.27312   1.39121   1.39313   1.41857   1.43356

 Mulliken charges:
               1
     1  O   -0.293768
     2  O   -0.706232
     3  O   -0.706232
     4  O   -0.293768
 Sum of Mulliken charges =  -2.00000

 Dipole moment (field-independent basis, Debye):
    X=             -0.0000    Y=              0.0000    Z=             -0.0000  Tot=              0.0000
 Quadrupole moment (field-independent basis, Debye-Ang):
   XX=            -24.4945   YY=            -25.6880   ZZ=            -66.9027
   XY=              0.0000   XZ=              0.0000   YZ=              0.0000

 Normal termination of Gaussian 16 at Wed Jan  4 19:28:35 2023.
