 Gaussian 16, Revision A.03,
 Gaussian 16:  ES64L-G16RevA.03 25-Dec-2016

 -------------------------------------
 #p CCSD(T)/cc-pVTZ Guess=Read SCF=XQC
 -------------------------------------

 ---------
 O2_O2_222
 ---------
 Symbolic Z-matrix:
 Charge = -2 Multiplicity = 1

                         Standard orientation:
 ---------------------------------------------------------------------
 Center     Atomic      Atomic             Coordinates (Angstroms)
 Number     Number       Type             X           Y           Z
 ---------------------------------------------------------------------
      1          8           0        0.000000    0.000000    2.364178
      2          8           0        0.000000    0.000000    3.716558
      3          8           0        0.000000    0.000000   -3.716558
      4          8           0        0.000000    0.000000   -2.364178
 ---------------------------------------------------------------------

 SCF Done:  E(RHF) =  -298.912361553     A.U. after    8 cycles
 E2 =    -0.1352792069D+01 EUMP2 =    -0.30026515362177D+03
 CCSD(T)
 CCSD(T)= -0.30015416659D+03

 Unable to determine electronic state:  an orbital has unidentified symmetry.
 Alpha  occ. eigenvalues --  -20.20861 -20.20861 -20.19807 -20.19807  -1.03409
 Alpha  occ. eigenvalues --   -1.03404  -0.65417  -0.65370  -0.21846  -0.21843
 Alpha  occ. eigenvalues --   -0.19150  -0.19103  -0.15362  -0.15109  -0.00291
 Alpha  occ. eigenvalues --   -0.00284   0.19281
 Alpha virt. eigenvalues --    0.28378   0.72765   0.73800   1.12146   1.13313
 Alpha virt. eigenvalues --    1.14619   1.14656   1.15610   1.15646   1.16780
 Alpha virt. eigenvalues --    1.18651   1.23121   1.23248   1.24605   1.24730

 Mulliken charges:
               1
     1  O   -0.446471
     2  O   -0.553529
     3  O   -0.553529
     4  O   -0.446471
 Sum of Mulliken charges =  -2.00000

 Dipole moment (field-independent basis, Debye):
    X=             -0.0000    Y=              0.0000    Z=             -0.0000  Tot=              0.0000
 Quadrupole moment (field-independent basis, Debye-Ang):
   XX=            -24.2343   YY=            -25.6624   ZZ=           -124.1414
   XY=              0.0000   XZ=              0.0000   YZ=              0.0000

 Normal termination of Gaussian 16 at Wed Jan  4 21:18:27 2023.
