 Gaussian 16, Revision A.03,
 Gaussian 16:  ES64L-G16RevA.03 25-Dec-2016

 -------------------------------------
 #p CCSD(T)/cc-pVTZ Guess=Read SCF=XQC
 -------------------------------------

 ---------
 O2_O2_119
 ---------
 Symbolic Z-matrix:
 Charge = -2 Multiplicity = 1

                         Standard orientation:
 ---------------------------------------------------------------------
 Center     Atomic      Atomic             Coordinates (Angstroms)
 Number     Number       Type             X           Y           Z
 ---------------------------------------------------------------------
      1          8           0        0.000000    0.000000    1.635011
      2          8           0        0.000000    0.000000    2.987391
      3          8           0        0.000000    0.000000   -2.987391
      4          8           0        0.000000    0.000000   -1.635011
 ---------------------------------------------------------------------

 SCF Done:  E(RHF) =  -298.904825934     A.U. after    9 cycles
 E2 =    -0.1237903954D+01 EUMP2 =    -0.30014272988809D+03
 CCSD(T)
 CCSD(T)= -0.30011683557D+03

 Unable to determine electronic state:  an orbital has unidentified symmetry.
 Alpha  occ. eigenvalues --  -20.18775 -20.18774 -20.16610 -20.16610  -1.00801
 Alpha  occ. eigenvalues --   -1.00738  -0.62844  -0.62440  -0.19268  -0.19155
 Alpha  occ. eigenvalues --   -0.16801  -0.15790  -0.12937  -0.12235   0.02272
 Alpha  occ. eigenvalues --    0.02539   0.20175
 Alpha virt. eigenvalues --    0.33084   0.72760   0.79947   1.09175   1.15698
 Alpha virt. eigenvalues --    1.16336   1.17012   1.17416   1.17757   1.18715
 Alpha virt. eigenvalues --    1.23752   1.25265   1.28684   1.30168   1.37347

 Mulliken charges:
               1
     1  O   -0.405729
     2  O   -0.594271
     3  O   -0.594271
     4  O   -0.405729
 Sum of Mulliken charges =  -2.00000

 Dipole moment (field-independent basis, Debye):
    X=             -0.0000    Y=             -0.0000    Z=             -0.0000  Tot=              0.0000
 Quadrupole moment (field-independent basis, Debye-Ang):
   XX=            -24.2978   YY=            -25.6795   ZZ=            -88.1433
   XY=              0.0000   XZ=              0.0000   YZ=              0.0000

 Normal termination of Gaussian 16 at Wed Jan  4 20:19:00 2023.
