 Gaussian 16, Revision A.03,
 Gaussian 16:  ES64L-G16RevA.03 25-Dec-2016

 -------------------------------------
 #p CCSD(T)/cc-pVTZ Guess=Read SCF=XQC
 -------------------------------------

 ---------
 O2_O2_125
 ---------
 Symbolic Z-matrix:
 Charge = -2 Multiplicity = 1

                         Standard orientation:
 ---------------------------------------------------------------------
 Center     Atomic      Atomic             Coordinates (Angstroms)
 Number     Number       Type             X           Y           Z
 ---------------------------------------------------------------------
      1          8           0        0.000000    0.000000    1.677487
      2          8           0        0.000000    0.000000    3.029867
      3          8           0        0.000000    0.000000   -3.029867
      4          8           0        0.000000    0.000000   -1.677487
 ---------------------------------------------------------------------

 SCF Done:  E(RHF) =  -298.904961654     A.U. after    8 cycles
 E2 =    -0.1245294279D+01 EUMP2 =    -0.30015025593333D+03
 CCSD(T)
 CCSD(T)= -0.30011970176D+03

 Unable to determine electronic state:  an orbital has unidentified symmetry.
 Alpha  occ. eigenvalues --  -20.18902 -20.18901 -20.16854 -20.16854  -1.00982
 Alpha  occ. eigenvalues --   -1.00930  -0.63011  -0.62669  -0.19445  -0.19352
 Alpha  occ. eigenvalues --   -0.16932  -0.16071  -0.13102  -0.12451   0.02100
 Alpha  occ. eigenvalues --    0.02324   0.20140
 Alpha virt. eigenvalues --    0.32704   0.72504   0.79544   1.08784   1.15650
 Alpha virt. eigenvalues --    1.16300   1.16878   1.17360   1.17511   1.18473
 Alpha virt. eigenvalues --    1.23821   1.25336   1.28066   1.29550   1.37154

 Mulliken charges:
               1
     1  O   -0.409392
     2  O   -0.590608
     3  O   -0.590608
     4  O   -0.409392
 Sum of Mulliken charges =  -2.00000

 Dipole moment (field-independent basis, Debye):
    X=             -0.0000    Y=              0.0000    Z=              0.0000  Tot=              0.0000
 Quadrupole moment (field-independent basis, Debye-Ang):
   XX=            -24.2893   YY=            -25.6780   ZZ=            -89.9340
   XY=              0.0000   XZ=              0.0000   YZ=              0.0000

 Normal termination of Gaussian 16 at Wed Jan  4 20:22:16 2023.
