 Gaussian 16, Revision A.03,
 Gaussian 16:  ES64L-G16RevA.03 25-Dec-2016

 ---------------------------------------------------------------
 #p ROCCSD(T)/cc-pVTZ Guess=Read SCF=(VeryTight,CDIIS,VShift=10)
 ---------------------------------------------------------------

 --------
 O2_O2_27
 --------
 Symbolic Z-matrix:
 Charge = -2 Multiplicity = 1

                         Standard orientation:
 ---------------------------------------------------------------------
 Center     Atomic      Atomic             Coordinates (Angstroms)
 Number     Number       Type             X           Y           Z
 ---------------------------------------------------------------------
      1          8           0        0.000000    0.000000    0.983716
      2          8           0        0.000000    0.000000    2.336097
      3          8           0        0.000000    0.000000   -2.336097
      4          8           0        0.000000    0.000000   -0.983716
 ---------------------------------------------------------------------

 SCF Done:  E(ROHF) =  -298.903966096     A.U. after    9 cycles
 E2 =    -0.1113927387D+01 EUMP2 =    -0.30001789348257D+03
 CCSD(T)
 CCSD(T)= -0.30003977808D+03

 Unable to determine electronic state:  an orbital has unidentified symmetry.
 Alpha  occ. eigenvalues --  -20.16738 -20.16734 -20.10632 -20.10632  -0.98024
 Alpha  occ. eigenvalues --   -0.96358  -0.62514  -0.55662  -0.17340  -0.16797
 Alpha  occ. eigenvalues --   -0.14529  -0.10572  -0.07198  -0.05953   0.04886
 Alpha  occ. eigenvalues --    0.07987   0.18858
 Alpha virt. eigenvalues --    0.43111   0.79626   0.87639   1.17007   1.17959
 Alpha virt. eigenvalues --    1.18009   1.19772   1.22320   1.23134   1.26127
 Alpha virt. eigenvalues --    1.27611   1.39129   1.39466   1.42262   1.43766

 Mulliken charges and spin densities:
               1          2
     1  O   -0.286669  -0.000000
     2  O   -0.713331  -0.000000
     3  O   -0.713331  -0.000000
     4  O   -0.286669  -0.000000
 Sum of Mulliken charges =  -2.00000  -0.00000

 Dipole moment (field-independent basis, Debye):
    X=             -0.0000    Y=             -0.0000    Z=              0.0000  Tot=              0.0000
 Quadrupole moment (field-independent basis, Debye-Ang):
   XX=            -24.4960   YY=            -25.6831   ZZ=            -66.4273
   XY=              0.0000   XZ=              0.0000   YZ=              0.0000

 CCSD(T)/cc-pVTZ Guess=Read SCF=(VeryTight,CDIIS,VShift=10)\\O2_O2_27\\
 736\CCSD=-299.9554365\CCSD(T)=-300.0397781\RMSD=8.780e-09\PG=D*H [C*(O
 Normal termination of Gaussian 16 at Sat Jan 14 17:51:31 2023.
