 Gaussian 16, Revision A.03,
 Gaussian 16:  ES64L-G16RevA.03 25-Dec-2016

 -------------------------------------
 #p CCSD(T)/cc-pVTZ Guess=Read SCF=XQC
 -------------------------------------

 --------
 O2_O2_71
 --------
 Symbolic Z-matrix:
 Charge = -2 Multiplicity = 1

                         Standard orientation:
 ---------------------------------------------------------------------
 Center     Atomic      Atomic             Coordinates (Angstroms)
 Number     Number       Type             X           Y           Z
 ---------------------------------------------------------------------
      1          8           0        0.000000    0.000000    1.295205
      2          8           0        0.000000    0.000000    2.647585
      3          8           0        0.000000    0.000000   -2.647585
      4          8           0        0.000000    0.000000   -1.295205
 ---------------------------------------------------------------------

 SCF Done:  E(RHF) =  -298.907280845     A.U. after    9 cycles
 E2 =    -0.1174374951D+01 EUMP2 =    -0.30008165579582D+03
 CCSD(T)
 CCSD(T)= -0.30008850206D+03

 Unable to determine electronic state:  an orbital has unidentified symmetry.
 Alpha  occ. eigenvalues --  -20.17791 -20.17789 -20.14189 -20.14189  -0.99233
 Alpha  occ. eigenvalues --   -0.98920  -0.61681  -0.60004  -0.17788  -0.17259
 Alpha  occ. eigenvalues --   -0.16148  -0.12590  -0.11558  -0.10130   0.03691
 Alpha  occ. eigenvalues --    0.04693   0.20141
 Alpha virt. eigenvalues --    0.37033   0.76419   0.83303   1.15894   1.16174
 Alpha virt. eigenvalues --    1.17248   1.17606   1.19929   1.20841   1.22099
 Alpha virt. eigenvalues --    1.23705   1.25126   1.35485   1.36967   1.38533

 Mulliken charges:
               1
     1  O   -0.363680
     2  O   -0.636320
     3  O   -0.636320
     4  O   -0.363680
 Sum of Mulliken charges =  -2.00000

 Dipole moment (field-independent basis, Debye):
    X=             -0.0000    Y=              0.0000    Z=              0.0000  Tot=              0.0000
 Quadrupole moment (field-independent basis, Debye-Ang):
   XX=            -24.3999   YY=            -25.6948   ZZ=            -75.2851
   XY=              0.0000   XZ=              0.0000   YZ=              0.0000

 622\MP4DQ=-299.9491514\MP4SDQ=-299.9757932\CCSD=-299.9800763\CCSD(T)=-
 Normal termination of Gaussian 16 at Wed Jan  4 19:52:15 2023.
