 Gaussian 16, Revision A.03,
 Gaussian 16:  ES64L-G16RevA.03 25-Dec-2016

 -------------------------------------
 #p CCSD(T)/cc-pVTZ Guess=Read SCF=XQC
 -------------------------------------

 --------
 O2_O2_98
 --------
 Symbolic Z-matrix:
 Charge = -2 Multiplicity = 1

                         Standard orientation:
 ---------------------------------------------------------------------
 Center     Atomic      Atomic             Coordinates (Angstroms)
 Number     Number       Type             X           Y           Z
 ---------------------------------------------------------------------
      1          8           0        0.000000    0.000000    1.486346
      2          8           0        0.000000    0.000000    2.838726
      3          8           0        0.000000    0.000000   -2.838726
      4          8           0        0.000000    0.000000   -1.486346
 ---------------------------------------------------------------------

 SCF Done:  E(RHF) =  -298.905067339     A.U. after    9 cycles
 E2 =    -0.1211055286D+01 EUMP2 =    -0.30011612262526D+03
 CCSD(T)
 CCSD(T)= -0.30010579376D+03

 Unable to determine electronic state:  an orbital has unidentified symmetry.
 Alpha  occ. eigenvalues --  -20.18339 -20.18338 -20.15667 -20.15667  -1.00137
 Alpha  occ. eigenvalues --   -1.00013  -0.62271  -0.61532  -0.18630  -0.18407
 Alpha  occ. eigenvalues --   -0.16399  -0.14642  -0.12342  -0.11407   0.02886
 Alpha  occ. eigenvalues --    0.03371   0.20247
 Alpha virt. eigenvalues --    0.34584   0.74139   0.81359   1.12232   1.15780
 Alpha virt. eigenvalues --    1.16315   1.17508   1.17635   1.18667   1.19610
 Alpha virt. eigenvalues --    1.23536   1.25024   1.31296   1.32779   1.37910

 Mulliken charges:
               1
     1  O   -0.390561
     2  O   -0.609439
     3  O   -0.609439
     4  O   -0.390561
 Sum of Mulliken charges =  -2.00000

 Dipole moment (field-independent basis, Debye):
    X=             -0.0000    Y=              0.0000    Z=              0.0000  Tot=              0.0000
 Quadrupole moment (field-independent basis, Debye-Ang):
   XX=            -24.3349   YY=            -25.6857   ZZ=            -82.1876
   XY=              0.0000   XZ=              0.0000   YZ=              0.0000

 Normal termination of Gaussian 16 at Wed Jan  4 20:07:26 2023.
