 Gaussian 16, Revision A.03,
 Gaussian 16:  ES64L-G16RevA.03 25-Dec-2016

 -------------------------------------
 #p CCSD(T)/cc-pVTZ Guess=Read SCF=XQC
 -------------------------------------

 ---------
 O2_O2_180
 ---------
 Symbolic Z-matrix:
 Charge = -2 Multiplicity = 1

                         Standard orientation:
 ---------------------------------------------------------------------
 Center     Atomic      Atomic             Coordinates (Angstroms)
 Number     Number       Type             X           Y           Z
 ---------------------------------------------------------------------
      1          8           0        0.000000    0.000000    2.066848
      2          8           0        0.000000    0.000000    3.419228
      3          8           0        0.000000    0.000000   -3.419228
      4          8           0        0.000000    0.000000   -2.066848
 ---------------------------------------------------------------------

 SCF Done:  E(RHF) =  -298.908571032     A.U. after    8 cycles
 E2 =    -0.1308332649D+01 EUMP2 =    -0.30021690368106D+03
 CCSD(T)
 CCSD(T)= -0.30014146597D+03

 Unable to determine electronic state:  an orbital has unidentified symmetry.
 Alpha  occ. eigenvalues --  -20.20054 -20.20053 -20.18714 -20.18714  -1.02471
 Alpha  occ. eigenvalues --   -1.02459  -0.64470  -0.64377  -0.20912  -0.20898
 Alpha  occ. eigenvalues --   -0.18227  -0.18043  -0.14478  -0.14118   0.00650
 Alpha  occ. eigenvalues --    0.00686   0.19675
 Alpha virt. eigenvalues --    0.29930   0.72545   0.75906   1.10867   1.14643
 Alpha virt. eigenvalues --    1.15446   1.15652   1.16432   1.16441   1.16636
 Alpha virt. eigenvalues --    1.23793   1.24115   1.24523   1.25287   1.26007

 Mulliken charges:
               1
     1  O   -0.434135
     2  O   -0.565865
     3  O   -0.565865
     4  O   -0.434135
 Sum of Mulliken charges =  -2.00000

 Dipole moment (field-independent basis, Debye):
    X=             -0.0000    Y=             -0.0000    Z=              0.0000  Tot=              0.0000
 Quadrupole moment (field-independent basis, Debye-Ang):
   XX=            -24.2452   YY=            -25.6674   ZZ=           -108.1390
   XY=              0.0000   XZ=              0.0000   YZ=              0.0000

 1055\MP4DQ=-299.747156\MP4SDQ=-299.7805914\CCSD=-300.0061549\CCSD(T)=-
 Normal termination of Gaussian 16 at Wed Jan  4 20:53:49 2023.
