 Gaussian 16, Revision A.03,
 Gaussian 16:  ES64L-G16RevA.03 25-Dec-2016

 -------------------------------------
 #p CCSD(T)/cc-pVTZ Guess=Read SCF=XQC
 -------------------------------------

 ---------
 O2_O2_165
 ---------
 Symbolic Z-matrix:
 Charge = -2 Multiplicity = 1

                         Standard orientation:
 ---------------------------------------------------------------------
 Center     Atomic      Atomic             Coordinates (Angstroms)
 Number     Number       Type             X           Y           Z
 ---------------------------------------------------------------------
      1          8           0        0.000000    0.000000    1.960659
      2          8           0        0.000000    0.000000    3.313039
      3          8           0        0.000000    0.000000   -3.313039
      4          8           0        0.000000    0.000000   -1.960659
 ---------------------------------------------------------------------

 SCF Done:  E(RHF) =  -298.907315194     A.U. after    8 cycles
 E2 =    -0.1291837134D+01 EUMP2 =    -0.30019915232742D+03
 CCSD(T)
 CCSD(T)= -0.30013621623D+03

 Unable to determine electronic state:  an orbital has unidentified symmetry.
 Alpha  occ. eigenvalues --  -20.19745 -20.19745 -20.18264 -20.18263  -1.02096
 Alpha  occ. eigenvalues --   -1.02079  -0.64094  -0.63966  -0.20539  -0.20515
 Alpha  occ. eigenvalues --   -0.17874  -0.17588  -0.14128  -0.13711   0.01022
 Alpha  occ. eigenvalues --    0.01084   0.19815
 Alpha virt. eigenvalues --    0.30584   0.72313   0.76853   1.09868   1.15016
 Alpha virt. eigenvalues --    1.15734   1.16087   1.16396   1.16735   1.17067
 Alpha virt. eigenvalues --    1.23934   1.25192   1.25434   1.26676   1.27766

 Mulliken charges:
               1
     1  O   -0.428626
     2  O   -0.571374
     3  O   -0.571374
     4  O   -0.428626
 Sum of Mulliken charges =  -2.00000

 Dipole moment (field-independent basis, Debye):
    X=             -0.0000    Y=             -0.0000    Z=              0.0000  Tot=              0.0000
 Quadrupole moment (field-independent basis, Debye-Ang):
   XX=            -24.2526   YY=            -25.6697   ZZ=           -102.8591
   XY=              0.0000   XZ=              0.0000   YZ=              0.0000

 Normal termination of Gaussian 16 at Wed Jan  4 20:45:07 2023.
