 Gaussian 16, Revision A.03,
 Gaussian 16:  ES64L-G16RevA.03 25-Dec-2016

 -------------------------------------
 #p CCSD(T)/cc-pVTZ Guess=Read SCF=XQC
 -------------------------------------

 ---------
 O2_O2_294
 ---------
 Symbolic Z-matrix:
 Charge = -2 Multiplicity = 1

                         Standard orientation:
 ---------------------------------------------------------------------
 Center     Atomic      Atomic             Coordinates (Angstroms)
 Number     Number       Type             X           Y           Z
 ---------------------------------------------------------------------
      1          8           0        0.000000    0.000000    2.873887
      2          8           0        0.000000    0.000000    4.226267
      3          8           0        0.000000    0.000000   -4.226267
      4          8           0        0.000000    0.000000   -2.873887
 ---------------------------------------------------------------------

 SCF Done:  E(RHF) =  -298.918241921     A.U. after    8 cycles
 E2 =    -0.1426068855D+01 EUMP2 =    -0.30034431077675D+03
 CCSD(T)
 CCSD(T)= -0.30017090956D+03

 Unable to determine electronic state:  an orbital has unidentified symmetry.
 Alpha  occ. eigenvalues --  -20.22000 -20.22000 -20.21239 -20.21239  -1.04679
 Alpha  occ. eigenvalues --   -1.04677  -0.66704  -0.66681  -0.23114  -0.23114
 Alpha  occ. eigenvalues --   -0.20449  -0.20445  -0.16577  -0.16422  -0.01573
 Alpha  occ. eigenvalues --   -0.01573   0.18695
 Alpha virt. eigenvalues --    0.26374   0.71879   0.71932   1.11485   1.11551
 Alpha virt. eigenvalues --    1.13399   1.13400   1.14392   1.14394   1.16032
 Alpha virt. eigenvalues --    1.16099   1.21889   1.21892   1.23369   1.23373

 Mulliken charges:
               1
     1  O   -0.460848
     2  O   -0.539152
     3  O   -0.539152
     4  O   -0.460848
 Sum of Mulliken charges =  -2.00000

 Dipole moment (field-independent basis, Debye):
    X=             -0.0000    Y=              0.0000    Z=              0.0000  Tot=              0.0000
 Quadrupole moment (field-independent basis, Debye-Ang):
   XX=            -24.2280   YY=            -25.6575   ZZ=           -155.7065
   XY=              0.0000   XZ=              0.0000   YZ=              0.0000

 Normal termination of Gaussian 16 at Wed Jan  4 22:01:17 2023.
