 Gaussian 16, Revision A.03,
 Gaussian 16:  ES64L-G16RevA.03 25-Dec-2016

 ---------------------------------------------------------------
 #p ROCCSD(T)/cc-pVTZ Guess=Read SCF=(VeryTight,CDIIS,VShift=10)
 ---------------------------------------------------------------

 ---------
 O2_O2_185
 ---------
 Symbolic Z-matrix:
 Charge = -2 Multiplicity = 1

                         Standard orientation:
 ---------------------------------------------------------------------
 Center     Atomic      Atomic             Coordinates (Angstroms)
 Number     Number       Type             X           Y           Z
 ---------------------------------------------------------------------
      1          8           0        0.000000    0.000000    2.102244
      2          8           0        0.000000    0.000000    3.454625
      3          8           0        0.000000    0.000000   -3.454625
      4          8           0        0.000000    0.000000   -2.102244
 ---------------------------------------------------------------------

 SCF Done:  E(ROHF) =  -298.909010707     A.U. after    8 cycles
 E2 =    -0.1313744707D+01 EUMP2 =    -0.30022275541479D+03
 CCSD(T)
 CCSD(T)= -0.30014312384D+03

 Unable to determine electronic state:  an orbital has unidentified symmetry.
 Alpha  occ. eigenvalues --  -20.20155 -20.20154 -20.18857 -20.18857  -1.02592
 Alpha  occ. eigenvalues --   -1.02581  -0.64591  -0.64506  -0.21031  -0.21020
 Alpha  occ. eigenvalues --   -0.18342  -0.18184  -0.14591  -0.14246   0.00530
 Alpha  occ. eigenvalues --    0.00560   0.19627
 Alpha virt. eigenvalues --    0.29725   0.72614   0.75608   1.11153   1.14503
 Alpha virt. eigenvalues --    1.15347   1.15518   1.16341   1.16469   1.16503
 Alpha virt. eigenvalues --    1.23131   1.23729   1.24333   1.25222   1.25816

 Mulliken charges and spin densities:
               1          2
     1  O   -0.435821  -0.000000
     2  O   -0.564179  -0.000000
     3  O   -0.564179  -0.000000
     4  O   -0.435821  -0.000000
 Sum of Mulliken charges =  -2.00000  -0.00000

 Dipole moment (field-independent basis, Debye):
    X=             -0.0000    Y=             -0.0000    Z=              0.0000  Tot=              0.0000
 Quadrupole moment (field-independent basis, Debye-Ang):
   XX=            -24.2433   YY=            -25.6667   ZZ=           -109.9503
   XY=              0.0000   XZ=              0.0000   YZ=              0.0000

 CCSD(T)/cc-pVTZ Guess=Read SCF=(VeryTight,CDIIS,VShift=10)\\O2_O2_185\
 6231\CCSD=-300.0072097\CCSD(T)=-300.1431238\RMSD=3.552e-09\PG=D*H [C*(
 Normal termination of Gaussian 16 at Sat Jan 14 21:12:57 2023.
