 Gaussian 16, Revision A.03,
 Gaussian 16:  ES64L-G16RevA.03 25-Dec-2016

 ---------------------------------------------------------------
 #p ROCCSD(T)/cc-pVTZ Guess=Read SCF=(VeryTight,CDIIS,VShift=10)
 ---------------------------------------------------------------

 --------
 O2_O2_23
 --------
 Symbolic Z-matrix:
 Charge = -2 Multiplicity = 1

                         Standard orientation:
 ---------------------------------------------------------------------
 Center     Atomic      Atomic             Coordinates (Angstroms)
 Number     Number       Type             X           Y           Z
 ---------------------------------------------------------------------
      1          8           0        0.000000    0.000000    0.955399
      2          8           0        0.000000    0.000000    2.307779
      3          8           0        0.000000    0.000000   -2.307779
      4          8           0        0.000000    0.000000   -0.955399
 ---------------------------------------------------------------------

 SCF Done:  E(ROHF) =  -298.900630625     A.U. after    9 cycles
 E2 =    -0.1109102920D+01 EUMP2 =    -0.30000973354451D+03
 CCSD(T)
 CCSD(T)= -0.30003188707D+03

 Unable to determine electronic state:  an orbital has unidentified symmetry.
 Alpha  occ. eigenvalues --  -20.16618 -20.16614 -20.10188 -20.10188  -0.98006
 Alpha  occ. eigenvalues --   -0.96041  -0.62877  -0.55067  -0.17605  -0.16804
 Alpha  occ. eigenvalues --   -0.14192  -0.10556  -0.06849  -0.04935   0.04975
 Alpha  occ. eigenvalues --    0.08403   0.18620
 Alpha virt. eigenvalues --    0.43853   0.79864   0.88196   1.17195   1.17964
 Alpha virt. eigenvalues --    1.18336   1.20100   1.22580   1.23381   1.26533
 Alpha virt. eigenvalues --    1.28044   1.39126   1.39545   1.42783   1.44295

 Mulliken charges and spin densities:
               1          2
     1  O   -0.276616   0.000000
     2  O   -0.723384   0.000000
     3  O   -0.723384   0.000000
     4  O   -0.276616   0.000000
 Sum of Mulliken charges =  -2.00000   0.00000

 Dipole moment (field-independent basis, Debye):
    X=             -0.0000    Y=             -0.0000    Z=              0.0000  Tot=              0.0000
 Quadrupole moment (field-independent basis, Debye-Ang):
   XX=            -24.4953   YY=            -25.6746   ZZ=            -65.8323
   XY=              0.0000   XZ=              0.0000   YZ=              0.0000

 CCSD(T)/cc-pVTZ Guess=Read SCF=(VeryTight,CDIIS,VShift=10)\\O2_O2_23\\
 89\CCSD=-299.9499768\CCSD(T)=-300.0318871\RMSD=9.871e-09\PG=D*H [C*(O1
 Normal termination of Gaussian 16 at Sat Jan 14 17:46:50 2023.
