 Gaussian 16, Revision A.03,
 Gaussian 16:  ES64L-G16RevA.03 25-Dec-2016

 -------------------------------------
 #p CCSD(T)/cc-pVTZ Guess=Read SCF=XQC
 -------------------------------------

 ---------
 O2_O2_287
 ---------
 Symbolic Z-matrix:
 Charge = -2 Multiplicity = 1

                         Standard orientation:
 ---------------------------------------------------------------------
 Center     Atomic      Atomic             Coordinates (Angstroms)
 Number     Number       Type             X           Y           Z
 ---------------------------------------------------------------------
      1          8           0        0.000000    0.000000    2.824332
      2          8           0        0.000000    0.000000    4.176712
      3          8           0        0.000000    0.000000   -4.176712
      4          8           0        0.000000    0.000000   -2.824332
 ---------------------------------------------------------------------

 SCF Done:  E(RHF) =  -298.917728722     A.U. after    8 cycles
 E2 =    -0.1419024239D+01 EUMP2 =    -0.30033675296159D+03
 CCSD(T)
 CCSD(T)= -0.30016949941D+03

 Unable to determine electronic state:  an orbital has unidentified symmetry.
 Alpha  occ. eigenvalues --  -20.21903 -20.21902 -20.21119 -20.21119  -1.04571
 Alpha  occ. eigenvalues --   -1.04569  -0.66595  -0.66571  -0.23007  -0.23007
 Alpha  occ. eigenvalues --   -0.20338  -0.20333  -0.16473  -0.16312  -0.01465
 Alpha  occ. eigenvalues --   -0.01464   0.18746
 Alpha virt. eigenvalues --    0.26542   0.71985   0.72059   1.11583   1.11675
 Alpha virt. eigenvalues --    1.13504   1.13505   1.14497   1.14499   1.16143
 Alpha virt. eigenvalues --    1.16239   1.21997   1.22002   1.23478   1.23483

 Mulliken charges:
               1
     1  O   -0.459720
     2  O   -0.540280
     3  O   -0.540280
     4  O   -0.459720
 Sum of Mulliken charges =  -2.00000

 Dipole moment (field-independent basis, Debye):
    X=             -0.0000    Y=              0.0000    Z=             -0.0000  Tot=              0.0000
 Quadrupole moment (field-independent basis, Debye-Ang):
   XX=            -24.2284   YY=            -25.6578   ZZ=           -152.4099
   XY=              0.0000   XZ=              0.0000   YZ=              0.0000

 Normal termination of Gaussian 16 at Wed Jan  4 21:56:55 2023.
