 Gaussian 16, Revision A.03,
 Gaussian 16:  ES64L-G16RevA.03 25-Dec-2016

 -------------------------------------
 #p CCSD(T)/cc-pVTZ Guess=Read SCF=XQC
 -------------------------------------

 --------
 O2_O2_99
 --------
 Symbolic Z-matrix:
 Charge = -2 Multiplicity = 1

                         Standard orientation:
 ---------------------------------------------------------------------
 Center     Atomic      Atomic             Coordinates (Angstroms)
 Number     Number       Type             X           Y           Z
 ---------------------------------------------------------------------
      1          8           0        0.000000    0.000000    1.493425
      2          8           0        0.000000    0.000000    2.845806
      3          8           0        0.000000    0.000000   -2.845806
      4          8           0        0.000000    0.000000   -1.493425
 ---------------------------------------------------------------------

 SCF Done:  E(RHF) =  -298.905027011     A.U. after    9 cycles
 E2 =    -0.1212368942D+01 EUMP2 =    -0.30011739595289D+03
 CCSD(T)
 CCSD(T)= -0.30010635949D+03

 Unable to determine electronic state:  an orbital has unidentified symmetry.
 Alpha  occ. eigenvalues --  -20.18360 -20.18359 -20.15715 -20.15715  -1.00170
 Alpha  occ. eigenvalues --   -1.00050  -0.62297  -0.61580  -0.18661  -0.18445
 Alpha  occ. eigenvalues --   -0.16415  -0.14704  -0.12371  -0.11449   0.02856
 Alpha  occ. eigenvalues --    0.03328   0.20246
 Alpha virt. eigenvalues --    0.34506   0.74061   0.81291   1.12025   1.15778
 Alpha virt. eigenvalues --    1.16321   1.17507   1.17596   1.18622   1.19566
 Alpha virt. eigenvalues --    1.23542   1.25033   1.31157   1.32640   1.37885

 Mulliken charges:
               1
     1  O   -0.391379
     2  O   -0.608621
     3  O   -0.608621
     4  O   -0.391379
 Sum of Mulliken charges =  -2.00000

 Dipole moment (field-independent basis, Debye):
    X=             -0.0000    Y=              0.0000    Z=              0.0000  Tot=              0.0000
 Quadrupole moment (field-independent basis, Debye-Ang):
   XX=            -24.3328   YY=            -25.6853   ZZ=            -82.4600
   XY=              0.0000   XZ=              0.0000   YZ=              0.0000

 824\MP4DQ=-299.9282678\MP4SDQ=-299.9560359\CCSD=-299.9873072\CCSD(T)=-
 Normal termination of Gaussian 16 at Wed Jan  4 20:07:59 2023.
