 Gaussian 16, Revision A.03,
 Gaussian 16:  ES64L-G16RevA.03 25-Dec-2016

 -------------------------------------
 #p CCSD(T)/cc-pVTZ Guess=Read SCF=XQC
 -------------------------------------

 ---------
 O2_O2_211
 ---------
 Symbolic Z-matrix:
 Charge = -2 Multiplicity = 1

                         Standard orientation:
 ---------------------------------------------------------------------
 Center     Atomic      Atomic             Coordinates (Angstroms)
 Number     Number       Type             X           Y           Z
 ---------------------------------------------------------------------
      1          8           0        0.000000    0.000000    2.286306
      2          8           0        0.000000    0.000000    3.638686
      3          8           0        0.000000    0.000000   -3.638686
      4          8           0        0.000000    0.000000   -2.286306
 ---------------------------------------------------------------------

 SCF Done:  E(RHF) =  -298.911365753     A.U. after    8 cycles
 E2 =    -0.1341337593D+01 EUMP2 =    -0.30025270334598D+03
 CCSD(T)
 CCSD(T)= -0.30015109115D+03

 Unable to determine electronic state:  an orbital has unidentified symmetry.
 Alpha  occ. eigenvalues --  -20.20659 -20.20659 -20.19542 -20.19542  -1.03179
 Alpha  occ. eigenvalues --   -1.03173  -0.65184  -0.65130  -0.21616  -0.21612
 Alpha  occ. eigenvalues --   -0.18919  -0.18851  -0.15144  -0.14868  -0.00059
 Alpha  occ. eigenvalues --   -0.00048   0.19382
 Alpha virt. eigenvalues --    0.28751   0.72789   0.74261   1.12037   1.13679
 Alpha virt. eigenvalues --    1.14832   1.14891   1.15823   1.15880   1.16723
 Alpha virt. eigenvalues --    1.19562   1.23317   1.23524   1.24803   1.25007

 Mulliken charges:
               1
     1  O   -0.443600
     2  O   -0.556400
     3  O   -0.556400
     4  O   -0.443600
 Sum of Mulliken charges =  -2.00000

 Dipole moment (field-independent basis, Debye):
    X=             -0.0000    Y=             -0.0000    Z=             -0.0000  Tot=              0.0000
 Quadrupole moment (field-independent basis, Debye-Ang):
   XX=            -24.2362   YY=            -25.6635   ZZ=           -119.7780
   XY=              0.0000   XZ=              0.0000   YZ=              0.0000

 Normal termination of Gaussian 16 at Wed Jan  4 21:12:14 2023.
