 Gaussian 16, Revision A.03,
 Gaussian 16:  ES64L-G16RevA.03 25-Dec-2016

 -------------------------------------
 #p CCSD(T)/cc-pVTZ Guess=Read SCF=XQC
 -------------------------------------

 --------
 O2_O2_50
 --------
 Symbolic Z-matrix:
 Charge = -2 Multiplicity = 1

                         Standard orientation:
 ---------------------------------------------------------------------
 Center     Atomic      Atomic             Coordinates (Angstroms)
 Number     Number       Type             X           Y           Z
 ---------------------------------------------------------------------
      1          8           0        0.000000    0.000000    1.146540
      2          8           0        0.000000    0.000000    2.498920
      3          8           0        0.000000    0.000000   -2.498920
      4          8           0        0.000000    0.000000   -1.146540
 ---------------------------------------------------------------------

 SCF Done:  E(RHF) =  -298.909286221     A.U. after    9 cycles
 E2 =    -0.1144848853D+01 EUMP2 =    -0.30005413507351D+03
 CCSD(T)
 CCSD(T)= -0.30007067036D+03

 Unable to determine electronic state:  an orbital has unidentified symmetry.
 Alpha  occ. eigenvalues --  -20.17339 -20.17337 -20.12732 -20.12732  -0.98544
 Alpha  occ. eigenvalues --   -0.97866  -0.61590  -0.58337  -0.17182  -0.16369
 Alpha  occ. eigenvalues --   -0.16139  -0.10986  -0.10191  -0.08902   0.04298
 Alpha  occ. eigenvalues --    0.06025   0.19774
 Alpha virt. eigenvalues --    0.39522   0.78067   0.85087   1.16255   1.16568
 Alpha virt. eigenvalues --    1.17830   1.18203   1.20992   1.21866   1.24455
 Alpha virt. eigenvalues --    1.25854   1.32199   1.38900   1.38919   1.40143

 Mulliken charges:
               1
     1  O   -0.333598
     2  O   -0.666402
     3  O   -0.666402
     4  O   -0.333598
 Sum of Mulliken charges =  -2.00000

 Dipole moment (field-independent basis, Debye):
    X=             -0.0000    Y=              0.0000    Z=             -0.0000  Tot=              0.0000
 Quadrupole moment (field-independent basis, Debye-Ang):
   XX=            -24.4573   YY=            -25.6996   ZZ=            -70.6068
   XY=              0.0000   XZ=              0.0000   YZ=              0.0000

 1721\MP4DQ=-299.951926\MP4SDQ=-299.9780737\CCSD=-299.9727565\CCSD(T)=-
 Normal termination of Gaussian 16 at Wed Jan  4 19:39:52 2023.
