 Gaussian 16, Revision A.03,
 Gaussian 16:  ES64L-G16RevA.03 25-Dec-2016

 ---------------------------------------------------------------
 #p ROCCSD(T)/cc-pVTZ Guess=Read SCF=(VeryTight,CDIIS,VShift=10)
 ---------------------------------------------------------------

 ---------
 O2_O2_105
 ---------
 Symbolic Z-matrix:
 Charge = -2 Multiplicity = 1

                         Standard orientation:
 ---------------------------------------------------------------------
 Center     Atomic      Atomic             Coordinates (Angstroms)
 Number     Number       Type             X           Y           Z
 ---------------------------------------------------------------------
      1          8           0        0.000000    0.000000    1.535901
      2          8           0        0.000000    0.000000    2.888281
      3          8           0        0.000000    0.000000   -2.888281
      4          8           0        0.000000    0.000000   -1.535901
 ---------------------------------------------------------------------

 SCF Done:  E(ROHF) =  -298.904849097     A.U. after    9 cycles
 E2 =    -0.1220177071D+01 EUMP2 =    -0.30012502616772D+03
 CCSD(T)
 CCSD(T)= -0.30010966447D+03

 Unable to determine electronic state:  an orbital has unidentified symmetry.
 Alpha  occ. eigenvalues --  -20.18483 -20.18482 -20.15998 -20.15998  -1.00363
 Alpha  occ. eigenvalues --   -1.00265  -0.62457  -0.61855  -0.18846  -0.18668
 Alpha  occ. eigenvalues --   -0.16520  -0.15058  -0.12543  -0.11697   0.02679
 Alpha  occ. eigenvalues --    0.03078   0.20234
 Alpha virt. eigenvalues --    0.34051   0.73610   0.80886   1.10910   1.15764
 Alpha virt. eigenvalues --    1.16346   1.17390   1.17494   1.18356   1.19304
 Alpha virt. eigenvalues --    1.23592   1.25093   1.30349   1.31833   1.37732

 Mulliken charges and spin densities:
               1          2
     1  O   -0.396073   0.000000
     2  O   -0.603927   0.000000
     3  O   -0.603927   0.000000
     4  O   -0.396073   0.000000
 Sum of Mulliken charges =  -2.00000   0.00000

 Dipole moment (field-independent basis, Debye):
    X=             -0.0000    Y=             -0.0000    Z=              0.0000  Tot=              0.0000
 Quadrupole moment (field-independent basis, Debye-Ang):
   XX=            -24.3212   YY=            -25.6835   ZZ=            -84.1183
   XY=              0.0000   XZ=              0.0000   YZ=              0.0000

 CCSD(T)/cc-pVTZ Guess=Read SCF=(VeryTight,CDIIS,VShift=10)\\O2_O2_105\
 2325\CCSD=-299.9887814\CCSD(T)=-300.1096645\RMSD=2.128e-09\PG=D*H [C*(
 Normal termination of Gaussian 16 at Sat Jan 14 19:28:34 2023.
