 Gaussian 16, Revision A.03,
 Gaussian 16:  ES64L-G16RevA.03 25-Dec-2016

 ---------------------------------------------------------------
 #p ROCCSD(T)/cc-pVTZ Guess=Read SCF=(VeryTight,CDIIS,VShift=10)
 ---------------------------------------------------------------

 ---------
 O2_O2_288
 ---------
 Symbolic Z-matrix:
 Charge = -2 Multiplicity = 1

                         Standard orientation:
 ---------------------------------------------------------------------
 Center     Atomic      Atomic             Coordinates (Angstroms)
 Number     Number       Type             X           Y           Z
 ---------------------------------------------------------------------
      1          8           0        0.000000    0.000000    2.831412
      2          8           0        0.000000    0.000000    4.183792
      3          8           0        0.000000    0.000000   -4.183792
      4          8           0        0.000000    0.000000   -2.831412
 ---------------------------------------------------------------------

 SCF Done:  E(ROHF) =  -298.917802814     A.U. after    8 cycles
 E2 =    -0.1420031338D+01 EUMP2 =    -0.30033783415175D+03
 CCSD(T)
 CCSD(T)= -0.30016970309D+03

 Unable to determine electronic state:  an orbital has unidentified symmetry.
 Alpha  occ. eigenvalues --  -20.21917 -20.21917 -20.21137 -20.21137  -1.04587
 Alpha  occ. eigenvalues --   -1.04584  -0.66611  -0.66587  -0.23022  -0.23022
 Alpha  occ. eigenvalues --   -0.20354  -0.20350  -0.16488  -0.16328  -0.01480
 Alpha  occ. eigenvalues --   -0.01480   0.18739
 Alpha virt. eigenvalues --    0.26518   0.71970   0.72040   1.11569   1.11656
 Alpha virt. eigenvalues --    1.13488   1.13490   1.14482   1.14484   1.16127
 Alpha virt. eigenvalues --    1.16219   1.21982   1.21986   1.23462   1.23467

 Mulliken charges and spin densities:
               1          2
     1  O   -0.459884   0.000000
     2  O   -0.540116   0.000000
     3  O   -0.540116   0.000000
     4  O   -0.459884   0.000000
 Sum of Mulliken charges =  -2.00000   0.00000

 Dipole moment (field-independent basis, Debye):
    X=             -0.0000    Y=              0.0000    Z=              0.0000  Tot=              0.0000
 Quadrupole moment (field-independent basis, Debye-Ang):
   XX=            -24.2283   YY=            -25.6578   ZZ=           -152.8779
   XY=              0.0000   XZ=              0.0000   YZ=              0.0000

 CCSD(T)/cc-pVTZ Guess=Read SCF=(VeryTight,CDIIS,VShift=10)\\O2_O2_288\
 7287\CCSD=-300.0252094\CCSD(T)=-300.1697031\RMSD=3.032e-09\PG=D*H [C*(
 Normal termination of Gaussian 16 at Sat Jan 14 23:31:02 2023.
