 Gaussian 16, Revision A.03,
 Gaussian 16:  ES64L-G16RevA.03 25-Dec-2016

 -------------------------------------
 #p CCSD(T)/cc-pVTZ Guess=Read SCF=XQC
 -------------------------------------

 ---------
 O2_O2_129
 ---------
 Symbolic Z-matrix:
 Charge = -2 Multiplicity = 1

                         Standard orientation:
 ---------------------------------------------------------------------
 Center     Atomic      Atomic             Coordinates (Angstroms)
 Number     Number       Type             X           Y           Z
 ---------------------------------------------------------------------
      1          8           0        0.000000    0.000000    1.705804
      2          8           0        0.000000    0.000000    3.058184
      3          8           0        0.000000    0.000000   -3.058184
      4          8           0        0.000000    0.000000   -1.705804
 ---------------------------------------------------------------------

 SCF Done:  E(RHF) =  -298.905093350     A.U. after    8 cycles
 E2 =    -0.1250154893D+01 EUMP2 =    -0.30015524824282D+03
 CCSD(T)
 CCSD(T)= -0.30012154878D+03

 Unable to determine electronic state:  an orbital has unidentified symmetry.
 Alpha  occ. eigenvalues --  -20.18986 -20.18985 -20.17011 -20.17011  -1.01101
 Alpha  occ. eigenvalues --   -1.01055  -0.63123  -0.62815  -0.19561  -0.19479
 Alpha  occ. eigenvalues --   -0.17023  -0.16249  -0.13210  -0.12591   0.01987
 Alpha  occ. eigenvalues --    0.02186   0.20113
 Alpha virt. eigenvalues --    0.32462   0.72372   0.79275   1.08630   1.15612
 Alpha virt. eigenvalues --    1.16267   1.16797   1.17316   1.17351   1.18315
 Alpha virt. eigenvalues --    1.23863   1.25378   1.27684   1.29169   1.36998

 Mulliken charges:
               1
     1  O   -0.411699
     2  O   -0.588301
     3  O   -0.588301
     4  O   -0.411699
 Sum of Mulliken charges =  -2.00000

 Dipole moment (field-independent basis, Debye):
    X=             -0.0000    Y=             -0.0000    Z=              0.0000  Tot=              0.0000
 Quadrupole moment (field-independent basis, Debye-Ang):
   XX=            -24.2842   YY=            -25.6770   ZZ=            -91.1495
   XY=              0.0000   XZ=              0.0000   YZ=              0.0000

 Normal termination of Gaussian 16 at Wed Jan  4 20:24:32 2023.
