 Gaussian 16, Revision A.03,
 Gaussian 16:  ES64L-G16RevA.03 25-Dec-2016

 -------------------------------------
 #p CCSD(T)/cc-pVTZ Guess=Read SCF=XQC
 -------------------------------------

 ---------
 O2_O2_150
 ---------
 Symbolic Z-matrix:
 Charge = -2 Multiplicity = 1

                         Standard orientation:
 ---------------------------------------------------------------------
 Center     Atomic      Atomic             Coordinates (Angstroms)
 Number     Number       Type             X           Y           Z
 ---------------------------------------------------------------------
      1          8           0        0.000000    0.000000    1.854469
      2          8           0        0.000000    0.000000    3.206849
      3          8           0        0.000000    0.000000   -3.206849
      4          8           0        0.000000    0.000000   -1.854469
 ---------------------------------------------------------------------

 SCF Done:  E(RHF) =  -298.906209810     A.U. after    8 cycles
 E2 =    -0.1274878668D+01 EUMP2 =    -0.30018108847787D+03
 CCSD(T)
 CCSD(T)= -0.30013049584D+03

 Unable to determine electronic state:  an orbital has unidentified symmetry.
 Alpha  occ. eigenvalues --  -20.19431 -20.19430 -20.17774 -20.17774  -1.01698
 Alpha  occ. eigenvalues --   -1.01672  -0.63699  -0.63519  -0.20146  -0.20106
 Alpha  occ. eigenvalues --   -0.17516  -0.17079  -0.13758  -0.13272   0.01412
 Alpha  occ. eigenvalues --    0.01515   0.19949
 Alpha virt. eigenvalues --    0.31307   0.72148   0.77853   1.08943   1.15317
 Alpha virt. eigenvalues --    1.15995   1.16485   1.16575   1.17007   1.17549
 Alpha virt. eigenvalues --    1.23979   1.25487   1.26049   1.27534   1.32510

 Mulliken charges:
               1
     1  O   -0.422305
     2  O   -0.577695
     3  O   -0.577695
     4  O   -0.422305
 Sum of Mulliken charges =  -2.00000

 Dipole moment (field-independent basis, Debye):
    X=             -0.0000    Y=             -0.0000    Z=              0.0000  Tot=              0.0000
 Quadrupole moment (field-independent basis, Debye-Ang):
   XX=            -24.2629   YY=            -25.6725   ZZ=            -97.8130
   XY=              0.0000   XZ=              0.0000   YZ=              0.0000

 Normal termination of Gaussian 16 at Wed Jan  4 20:36:42 2023.
