 Gaussian 16, Revision A.03,
 Gaussian 16:  ES64L-G16RevA.03 25-Dec-2016

 ---------------------------------------------------------------
 #p ROCCSD(T)/cc-pVTZ Guess=Read SCF=(VeryTight,CDIIS,VShift=10)
 ---------------------------------------------------------------

 ---------
 O2_O2_178
 ---------
 Symbolic Z-matrix:
 Charge = -2 Multiplicity = 1

                         Standard orientation:
 ---------------------------------------------------------------------
 Center     Atomic      Atomic             Coordinates (Angstroms)
 Number     Number       Type             X           Y           Z
 ---------------------------------------------------------------------
      1          8           0        0.000000    0.000000    2.052690
      2          8           0        0.000000    0.000000    3.405070
      3          8           0        0.000000    0.000000   -3.405070
      4          8           0        0.000000    0.000000   -2.052690
 ---------------------------------------------------------------------

 SCF Done:  E(ROHF) =  -298.908397544     A.U. after    8 cycles
 E2 =    -0.1306156531D+01 EUMP2 =    -0.30021455407496D+03
 CCSD(T)
 CCSD(T)= -0.30014079062D+03

 Unable to determine electronic state:  an orbital has unidentified symmetry.
 Alpha  occ. eigenvalues --  -20.20013 -20.20013 -20.18656 -20.18656  -1.02423
 Alpha  occ. eigenvalues --   -1.02410  -0.64421  -0.64324  -0.20863  -0.20848
 Alpha  occ. eigenvalues --   -0.18180  -0.17985  -0.14432  -0.14065   0.00698
 Alpha  occ. eigenvalues --    0.00738   0.19694
 Alpha virt. eigenvalues --    0.30014   0.72515   0.76027   1.10744   1.14697
 Alpha virt. eigenvalues --    1.15486   1.15707   1.16420   1.16481   1.16691
 Alpha virt. eigenvalues --    1.23816   1.24540   1.24604   1.25311   1.26087

 Mulliken charges and spin densities:
               1          2
     1  O   -0.433441   0.000000
     2  O   -0.566559   0.000000
     3  O   -0.566559   0.000000
     4  O   -0.433441  -0.000000
 Sum of Mulliken charges =  -2.00000   0.00000

 Dipole moment (field-independent basis, Debye):
    X=             -0.0000    Y=             -0.0000    Z=              0.0000  Tot=              0.0000
 Quadrupole moment (field-independent basis, Debye-Ang):
   XX=            -24.2460   YY=            -25.6677   ZZ=           -107.4217
   XY=              0.0000   XZ=              0.0000   YZ=              0.0000

 CCSD(T)/cc-pVTZ Guess=Read SCF=(VeryTight,CDIIS,VShift=10)\\O2_O2_178\
 1723\CCSD=-300.0057287\CCSD(T)=-300.1407906\RMSD=3.739e-09\PG=D*H [C*(
 Normal termination of Gaussian 16 at Sat Jan 14 21:03:44 2023.
