 Gaussian 16, Revision A.03,
 Gaussian 16:  ES64L-G16RevA.03 25-Dec-2016

 -------------------------------------
 #p CCSD(T)/cc-pVTZ Guess=Read SCF=XQC
 -------------------------------------

 --------
 O2_O2_34
 --------
 Symbolic Z-matrix:
 Charge = -2 Multiplicity = 1

                         Standard orientation:
 ---------------------------------------------------------------------
 Center     Atomic      Atomic             Coordinates (Angstroms)
 Number     Number       Type             X           Y           Z
 ---------------------------------------------------------------------
      1          8           0        0.000000    0.000000    1.033272
      2          8           0        0.000000    0.000000    2.385652
      3          8           0        0.000000    0.000000   -2.385652
      4          8           0        0.000000    0.000000   -1.033272
 ---------------------------------------------------------------------

 SCF Done:  E(RHF) =  -298.907481783     A.U. after    9 cycles
 E2 =    -0.1122908911D+01 EUMP2 =    -0.30003039069342D+03
 CCSD(T)
 CCSD(T)= -0.30005131036D+03

 Unable to determine electronic state:  an orbital has unidentified symmetry.
 Alpha  occ. eigenvalues --  -20.16937 -20.16934 -20.11345 -20.11345  -0.98126
 Alpha  occ. eigenvalues --   -0.96868  -0.62053  -0.56600  -0.16946  -0.16854
 Alpha  occ. eigenvalues --   -0.15074  -0.10653  -0.07766  -0.07499   0.04720
 Alpha  occ. eigenvalues --    0.07318   0.19212
 Alpha virt. eigenvalues --    0.41903   0.79180   0.86762   1.16729   1.17470
 Alpha virt. eigenvalues --    1.17937   1.19214   1.21889   1.22723   1.25505
 Alpha virt. eigenvalues --    1.26948   1.38866   1.39100   1.41300   1.42557

 Mulliken charges:
               1
     1  O   -0.302725
     2  O   -0.697275
     3  O   -0.697275
     4  O   -0.302725
 Sum of Mulliken charges =  -2.00000

 Dipole moment (field-independent basis, Debye):
    X=             -0.0000    Y=              0.0000    Z=             -0.0000  Tot=              0.0000
 Quadrupole moment (field-independent basis, Debye-Ang):
   XX=            -24.4903   YY=            -25.6929   ZZ=            -67.5724
   XY=              0.0000   XZ=              0.0000   YZ=              0.0000

 Normal termination of Gaussian 16 at Wed Jan  4 19:30:40 2023.
