 Gaussian 16, Revision A.03,
 Gaussian 16:  ES64L-G16RevA.03 25-Dec-2016

 ---------------------------------------------------------------
 #p ROCCSD(T)/cc-pVTZ Guess=Read SCF=(VeryTight,CDIIS,VShift=10)
 ---------------------------------------------------------------

 ---------
 O2_O2_122
 ---------
 Symbolic Z-matrix:
 Charge = -2 Multiplicity = 1

                         Standard orientation:
 ---------------------------------------------------------------------
 Center     Atomic      Atomic             Coordinates (Angstroms)
 Number     Number       Type             X           Y           Z
 ---------------------------------------------------------------------
      1          8           0        0.000000    0.000000    1.656249
      2          8           0        0.000000    0.000000    3.008629
      3          8           0        0.000000    0.000000   -3.008629
      4          8           0        0.000000    0.000000   -1.656249
 ---------------------------------------------------------------------

 SCF Done:  E(ROHF) =  -298.904884039     A.U. after    9 cycles
 E2 =    -0.1241614257D+01 EUMP2 =    -0.30014649829620D+03
 CCSD(T)
 CCSD(T)= -0.30011828380D+03

 Unable to determine electronic state:  an orbital has unidentified symmetry.
 Alpha  occ. eigenvalues --  -20.18838 -20.18838 -20.16733 -20.16733  -1.00892
 Alpha  occ. eigenvalues --   -1.00834  -0.62927  -0.62556  -0.19357  -0.19254
 Alpha  occ. eigenvalues --   -0.16866  -0.15933  -0.13020  -0.12344   0.02186
 Alpha  occ. eigenvalues --    0.02430   0.20158
 Alpha virt. eigenvalues --    0.32892   0.72623   0.79746   1.08955   1.15676
 Alpha virt. eigenvalues --    1.16320   1.16943   1.17390   1.17633   1.18593
 Alpha virt. eigenvalues --    1.23787   1.25302   1.28368   1.29852   1.37254

 Mulliken charges and spin densities:
               1          2
     1  O   -0.407593   0.000000
     2  O   -0.592407   0.000000
     3  O   -0.592407   0.000000
     4  O   -0.407593   0.000000
 Sum of Mulliken charges =  -2.00000   0.00000

 Dipole moment (field-independent basis, Debye):
    X=             -0.0000    Y=              0.0000    Z=              0.0000  Tot=              0.0000
 Quadrupole moment (field-independent basis, Debye-Ang):
   XX=            -24.2935   YY=            -25.6788   ZZ=            -89.0338
   XY=              0.0000   XZ=              0.0000   YZ=              0.0000

 CCSD(T)/cc-pVTZ Guess=Read SCF=(VeryTight,CDIIS,VShift=10)\\O2_O2_122\
 78\CCSD=-299.9929131\CCSD(T)=-300.1182838\RMSD=1.684e-09\PG=D*H [C*(O1
 Normal termination of Gaussian 16 at Sat Jan 14 19:49:22 2023.
