 Gaussian 16, Revision A.03,
 Gaussian 16:  ES64L-G16RevA.03 25-Dec-2016

 -------------------------------------
 #p CCSD(T)/cc-pVTZ Guess=Read SCF=XQC
 -------------------------------------

 ---------
 O2_O2_286
 ---------
 Symbolic Z-matrix:
 Charge = -2 Multiplicity = 1

                         Standard orientation:
 ---------------------------------------------------------------------
 Center     Atomic      Atomic             Coordinates (Angstroms)
 Number     Number       Type             X           Y           Z
 ---------------------------------------------------------------------
      1          8           0        0.000000    0.000000    2.817252
      2          8           0        0.000000    0.000000    4.169633
      3          8           0        0.000000    0.000000   -4.169633
      4          8           0        0.000000    0.000000   -2.817252
 ---------------------------------------------------------------------

 SCF Done:  E(RHF) =  -298.917654371     A.U. after    8 cycles
 E2 =    -0.1418016900D+01 EUMP2 =    -0.30033567127057D+03
 CCSD(T)
 CCSD(T)= -0.30016929436D+03

 Unable to determine electronic state:  an orbital has unidentified symmetry.
 Alpha  occ. eigenvalues --  -20.21888 -20.21888 -20.21102 -20.21102  -1.04556
 Alpha  occ. eigenvalues --   -1.04553  -0.66580  -0.66555  -0.22991  -0.22991
 Alpha  occ. eigenvalues --   -0.20322  -0.20317  -0.16458  -0.16295  -0.01449
 Alpha  occ. eigenvalues --   -0.01448   0.18754
 Alpha virt. eigenvalues --    0.26566   0.72000   0.72077   1.11597   1.11693
 Alpha virt. eigenvalues --    1.13519   1.13520   1.14512   1.14515   1.16159
 Alpha virt. eigenvalues --    1.16260   1.22013   1.22018   1.23494   1.23499

 Mulliken charges:
               1
     1  O   -0.459555
     2  O   -0.540445
     3  O   -0.540445
     4  O   -0.459555
 Sum of Mulliken charges =  -2.00000

 Dipole moment (field-independent basis, Debye):
    X=             -0.0000    Y=             -0.0000    Z=              0.0000  Tot=              0.0000
 Quadrupole moment (field-independent basis, Debye-Ang):
   XX=            -24.2284   YY=            -25.6579   ZZ=           -151.9429
   XY=              0.0000   XZ=              0.0000   YZ=              0.0000

 Normal termination of Gaussian 16 at Wed Jan  4 21:56:17 2023.
