 Gaussian 16, Revision A.03,
 Gaussian 16:  ES64L-G16RevA.03 25-Dec-2016

 -------------------------------------
 #p CCSD(T)/cc-pVTZ Guess=Read SCF=XQC
 -------------------------------------

 --------
 O2_O2_85
 --------
 Symbolic Z-matrix:
 Charge = -2 Multiplicity = 1

                         Standard orientation:
 ---------------------------------------------------------------------
 Center     Atomic      Atomic             Coordinates (Angstroms)
 Number     Number       Type             X           Y           Z
 ---------------------------------------------------------------------
      1          8           0        0.000000    0.000000    1.394315
      2          8           0        0.000000    0.000000    2.746695
      3          8           0        0.000000    0.000000   -2.746695
      4          8           0        0.000000    0.000000   -1.394315
 ---------------------------------------------------------------------

 SCF Done:  E(RHF) =  -298.905877486     A.U. after    9 cycles
 E2 =    -0.1193669950D+01 EUMP2 =    -0.30009954743574D+03
 CCSD(T)
 CCSD(T)= -0.30009800508D+03

 Unable to determine electronic state:  an orbital has unidentified symmetry.
 Alpha  occ. eigenvalues --  -20.18075 -20.18074 -20.15000 -20.15000  -0.99707
 Alpha  occ. eigenvalues --   -0.99515  -0.61951  -0.60861  -0.18224  -0.17887
 Alpha  occ. eigenvalues --   -0.16226  -0.13758  -0.11964  -0.10827   0.03273
 Alpha  occ. eigenvalues --    0.03964   0.20233
 Alpha virt. eigenvalues --    0.35677   0.75224   0.82263   1.15269   1.15807
 Alpha virt. eigenvalues --    1.16224   1.17522   1.18473   1.19263   1.20192
 Alpha virt. eigenvalues --    1.23524   1.24982   1.33230   1.34713   1.38223

 Mulliken charges:
               1
     1  O   -0.378867
     2  O   -0.621133
     3  O   -0.621133
     4  O   -0.378867
 Sum of Mulliken charges =  -2.00000

 Dipole moment (field-independent basis, Debye):
    X=             -0.0000    Y=              0.0000    Z=              0.0000  Tot=              0.0000
 Quadrupole moment (field-independent basis, Debye-Ang):
   XX=            -24.3639   YY=            -25.6899   ZZ=            -78.7524
   XY=              0.0000   XZ=              0.0000   YZ=              0.0000

 718\MP4DQ=-299.9411823\MP4SDQ=-299.9683265\CCSD=-299.9838085\CCSD(T)=-
 Normal termination of Gaussian 16 at Wed Jan  4 20:00:07 2023.
