 Gaussian 16, Revision A.03,
 Gaussian 16:  ES64L-G16RevA.03 25-Dec-2016

 -------------------------------------
 #p CCSD(T)/cc-pVTZ Guess=Read SCF=XQC
 -------------------------------------

 ---------
 O2_O2_290
 ---------
 Symbolic Z-matrix:
 Charge = -2 Multiplicity = 1

                         Standard orientation:
 ---------------------------------------------------------------------
 Center     Atomic      Atomic             Coordinates (Angstroms)
 Number     Number       Type             X           Y           Z
 ---------------------------------------------------------------------
      1          8           0        0.000000    0.000000    2.845570
      2          8           0        0.000000    0.000000    4.197950
      3          8           0        0.000000    0.000000   -4.197950
      4          8           0        0.000000    0.000000   -2.845570
 ---------------------------------------------------------------------

 SCF Done:  E(RHF) =  -298.917950213     A.U. after    8 cycles
 E2 =    -0.1422044758D+01 EUMP2 =    -0.30033999497074D+03
 CCSD(T)
 CCSD(T)= -0.30017010844D+03

 Unable to determine electronic state:  an orbital has unidentified symmetry.
 Alpha  occ. eigenvalues --  -20.21945 -20.21945 -20.21171 -20.21171  -1.04618
 Alpha  occ. eigenvalues --   -1.04615  -0.66642  -0.66619  -0.23053  -0.23053
 Alpha  occ. eigenvalues --   -0.20386  -0.20382  -0.16518  -0.16359  -0.01511
 Alpha  occ. eigenvalues --   -0.01511   0.18724
 Alpha virt. eigenvalues --    0.26470   0.71939   0.72003   1.11541   1.11621
 Alpha virt. eigenvalues --    1.13458   1.13459   1.14452   1.14454   1.16096
 Alpha virt. eigenvalues --    1.16178   1.21950   1.21955   1.23431   1.23435

 Mulliken charges:
               1
     1  O   -0.460209
     2  O   -0.539791
     3  O   -0.539791
     4  O   -0.460209
 Sum of Mulliken charges =  -2.00000

 Dipole moment (field-independent basis, Debye):
    X=             -0.0000    Y=             -0.0000    Z=             -0.0000  Tot=              0.0000
 Quadrupole moment (field-independent basis, Debye-Ang):
   XX=            -24.2282   YY=            -25.6577   ZZ=           -153.8168
   XY=              0.0000   XZ=              0.0000   YZ=              0.0000

 0331\MP4DQ=-299.1780756\MP4SDQ=-299.2228455\CCSD=-300.0254924\CCSD(T)=
 Normal termination of Gaussian 16 at Wed Jan  4 21:58:49 2023.
