 Gaussian 16, Revision A.03,
 Gaussian 16:  ES64L-G16RevA.03 25-Dec-2016

 -------------------------------------
 #p CCSD(T)/cc-pVTZ Guess=Read SCF=XQC
 -------------------------------------

 --------
 O2_O2_92
 --------
 Symbolic Z-matrix:
 Charge = -2 Multiplicity = 1

                         Standard orientation:
 ---------------------------------------------------------------------
 Center     Atomic      Atomic             Coordinates (Angstroms)
 Number     Number       Type             X           Y           Z
 ---------------------------------------------------------------------
      1          8           0        0.000000    0.000000    1.443871
      2          8           0        0.000000    0.000000    2.796251
      3          8           0        0.000000    0.000000   -2.796251
      4          8           0        0.000000    0.000000   -1.443871
 ---------------------------------------------------------------------

 SCF Done:  E(RHF) =  -298.905375236     A.U. after    9 cycles
 E2 =    -0.1203101328D+01 EUMP2 =    -0.30010847656388D+03
 CCSD(T)
 CCSD(T)= -0.30010230372D+03

 Unable to determine electronic state:  an orbital has unidentified symmetry.
 Alpha  occ. eigenvalues --  -20.18217 -20.18216 -20.15368 -20.15368  -0.99940
 Alpha  occ. eigenvalues --   -0.99789  -0.62118  -0.61235  -0.18444  -0.18173
 Alpha  occ. eigenvalues --   -0.16310  -0.14254  -0.12168  -0.11146   0.03064
 Alpha  occ. eigenvalues --    0.03636   0.20248
 Alpha virt. eigenvalues --    0.35071   0.74629   0.81771   1.13582   1.15791
 Alpha virt. eigenvalues --    1.16275   1.17514   1.17915   1.18940   1.19876
 Alpha virt. eigenvalues --    1.23512   1.24988   1.32163   1.33646   1.38057

 Mulliken charges:
               1
     1  O   -0.385416
     2  O   -0.614584
     3  O   -0.614584
     4  O   -0.385416
 Sum of Mulliken charges =  -2.00000

 Dipole moment (field-independent basis, Debye):
    X=             -0.0000    Y=              0.0000    Z=              0.0000  Tot=              0.0000
 Quadrupole moment (field-independent basis, Debye-Ang):
   XX=            -24.3477   YY=            -25.6876   ZZ=            -80.5774
   XY=              0.0000   XZ=              0.0000   YZ=              0.0000

 Normal termination of Gaussian 16 at Wed Jan  4 20:04:05 2023.
