 Gaussian 16, Revision A.03,
 Gaussian 16:  ES64L-G16RevA.03 25-Dec-2016

 -------------------------------------
 #p CCSD(T)/cc-pVTZ Guess=Read SCF=XQC
 -------------------------------------

 --------
 O2_O2_67
 --------
 Symbolic Z-matrix:
 Charge = -2 Multiplicity = 1

                         Standard orientation:
 ---------------------------------------------------------------------
 Center     Atomic      Atomic             Coordinates (Angstroms)
 Number     Number       Type             X           Y           Z
 ---------------------------------------------------------------------
      1          8           0        0.000000    0.000000    1.266888
      2          8           0        0.000000    0.000000    2.619268
      3          8           0        0.000000    0.000000   -2.619268
      4          8           0        0.000000    0.000000   -1.266888
 ---------------------------------------------------------------------

 SCF Done:  E(RHF) =  -298.907740150     A.U. after    9 cycles
 E2 =    -0.1168778035D+01 EUMP2 =    -0.30007651818441D+03
 CCSD(T)
 CCSD(T)= -0.30008550614D+03

 Unable to determine electronic state:  an orbital has unidentified symmetry.
 Alpha  occ. eigenvalues --  -20.17708 -20.17707 -20.13937 -20.13937  -0.99098
 Alpha  occ. eigenvalues --   -0.98736  -0.61627  -0.59727  -0.17666  -0.17065
 Alpha  occ. eigenvalues --   -0.16154  -0.12203  -0.11444  -0.09914   0.03809
 Alpha  occ. eigenvalues --    0.04922   0.20095
 Alpha virt. eigenvalues --    0.37461   0.76751   0.83618   1.15939   1.16193
 Alpha virt. eigenvalues --    1.17445   1.17665   1.20125   1.21030   1.23761
 Alpha virt. eigenvalues --    1.23800   1.25212   1.36143   1.37626   1.38615

 Mulliken charges:
               1
     1  O   -0.358724
     2  O   -0.641276
     3  O   -0.641276
     4  O   -0.358724
 Sum of Mulliken charges =  -2.00000

 Dipole moment (field-independent basis, Debye):
    X=             -0.0000    Y=             -0.0000    Z=             -0.0000  Tot=              0.0000
 Quadrupole moment (field-independent basis, Debye-Ang):
   XX=            -24.4108   YY=            -25.6961   ZZ=            -74.3424
   XY=              0.0000   XZ=              0.0000   YZ=              0.0000

 Normal termination of Gaussian 16 at Wed Jan  4 19:49:59 2023.
