 Gaussian 16, Revision A.03,
 Gaussian 16:  ES64L-G16RevA.03 25-Dec-2016

 -------------------------------------
 #p CCSD(T)/cc-pVTZ Guess=Read SCF=XQC
 -------------------------------------

 --------
 O2_O2_62
 --------
 Symbolic Z-matrix:
 Charge = -2 Multiplicity = 1

                         Standard orientation:
 ---------------------------------------------------------------------
 Center     Atomic      Atomic             Coordinates (Angstroms)
 Number     Number       Type             X           Y           Z
 ---------------------------------------------------------------------
      1          8           0        0.000000    0.000000    1.231492
      2          8           0        0.000000    0.000000    2.583872
      3          8           0        0.000000    0.000000   -2.583872
      4          8           0        0.000000    0.000000   -1.231492
 ---------------------------------------------------------------------

 SCF Done:  E(RHF) =  -298.908306802     A.U. after    9 cycles
 E2 =    -0.1161748463D+01 EUMP2 =    -0.30007005526490D+03
 CCSD(T)
 CCSD(T)= -0.30008153711D+03

 Unable to determine electronic state:  an orbital has unidentified symmetry.
 Alpha  occ. eigenvalues --  -20.17604 -20.17602 -20.13606 -20.13606  -0.98930
 Alpha  occ. eigenvalues --   -0.98496  -0.61579  -0.59357  -0.17516  -0.16810
 Alpha  occ. eigenvalues --   -0.16182  -0.11678  -0.11304  -0.09634   0.03955
 Alpha  occ. eigenvalues --    0.05223   0.20024
 Alpha virt. eigenvalues --    0.38024   0.77154   0.84026   1.16011   1.16248
 Alpha virt. eigenvalues --    1.17612   1.17770   1.20373   1.21270   1.23950
 Alpha virt. eigenvalues --    1.25353   1.26060   1.36966   1.38448   1.38713

 Mulliken charges:
               1
     1  O   -0.352061
     2  O   -0.647939
     3  O   -0.647939
     4  O   -0.352061
 Sum of Mulliken charges =  -2.00000

 Dipole moment (field-independent basis, Debye):
    X=             -0.0000    Y=              0.0000    Z=              0.0000  Tot=              0.0000
 Quadrupole moment (field-independent basis, Debye-Ang):
   XX=            -24.4247   YY=            -25.6976   ZZ=            -73.1963
   XY=              0.0000   XZ=              0.0000   YZ=              0.0000

 Normal termination of Gaussian 16 at Wed Jan  4 19:46:59 2023.
