 Gaussian 16, Revision A.03,
 Gaussian 16:  ES64L-G16RevA.03 25-Dec-2016

 -------------------------------------
 #p CCSD(T)/cc-pVTZ Guess=Read SCF=XQC
 -------------------------------------

 ---------
 O2_O2_292
 ---------
 Symbolic Z-matrix:
 Charge = -2 Multiplicity = 1

                         Standard orientation:
 ---------------------------------------------------------------------
 Center     Atomic      Atomic             Coordinates (Angstroms)
 Number     Number       Type             X           Y           Z
 ---------------------------------------------------------------------
      1          8           0        0.000000    0.000000    2.859729
      2          8           0        0.000000    0.000000    4.212109
      3          8           0        0.000000    0.000000   -4.212109
      4          8           0        0.000000    0.000000   -2.859729
 ---------------------------------------------------------------------

 SCF Done:  E(RHF) =  -298.918096580     A.U. after    8 cycles
 E2 =    -0.1424057255D+01 EUMP2 =    -0.30034215383536D+03
 CCSD(T)
 CCSD(T)= -0.30017051069D+03

 Unable to determine electronic state:  an orbital has unidentified symmetry.
 Alpha  occ. eigenvalues --  -20.21973 -20.21972 -20.21206 -20.21205  -1.04648
 Alpha  occ. eigenvalues --   -1.04646  -0.66674  -0.66650  -0.23084  -0.23084
 Alpha  occ. eigenvalues --   -0.20418  -0.20414  -0.16548  -0.16391  -0.01542
 Alpha  occ. eigenvalues --   -0.01542   0.18710
 Alpha virt. eigenvalues --    0.26422   0.71909   0.71967   1.11513   1.11586
 Alpha virt. eigenvalues --    1.13428   1.13429   1.14422   1.14424   1.16064
 Alpha virt. eigenvalues --    1.16138   1.21919   1.21923   1.23400   1.23404

 Mulliken charges:
               1
     1  O   -0.460530
     2  O   -0.539470
     3  O   -0.539470
     4  O   -0.460530
 Sum of Mulliken charges =  -2.00000

 Dipole moment (field-independent basis, Debye):
    X=             -0.0000    Y=             -0.0000    Z=             -0.0000  Tot=              0.0000
 Quadrupole moment (field-independent basis, Debye-Ang):
   XX=            -24.2281   YY=            -25.6576   ZZ=           -154.7596
   XY=              0.0000   XZ=              0.0000   YZ=              0.0000

 Normal termination of Gaussian 16 at Wed Jan  4 22:00:03 2023.
