 Gaussian 16, Revision A.03,
 Gaussian 16:  ES64L-G16RevA.03 25-Dec-2016

 ---------------------------------------------------------------
 #p ROCCSD(T)/cc-pVTZ Guess=Read SCF=(VeryTight,CDIIS,VShift=10)
 ---------------------------------------------------------------

 ---------
 O2_O2_276
 ---------
 Symbolic Z-matrix:
 Charge = -2 Multiplicity = 1

                         Standard orientation:
 ---------------------------------------------------------------------
 Center     Atomic      Atomic             Coordinates (Angstroms)
 Number     Number       Type             X           Y           Z
 ---------------------------------------------------------------------
      1          8           0        0.000000    0.000000    2.746460
      2          8           0        0.000000    0.000000    4.098840
      3          8           0        0.000000    0.000000   -4.098840
      4          8           0        0.000000    0.000000   -2.746460
 ---------------------------------------------------------------------

 SCF Done:  E(ROHF) =  -298.916896450     A.U. after    8 cycles
 E2 =    -0.1407929805D+01 EUMP2 =    -0.30032482625497D+03
 CCSD(T)
 CCSD(T)= -0.30016720194D+03

 Unable to determine electronic state:  an orbital has unidentified symmetry.
 Alpha  occ. eigenvalues --  -20.21744 -20.21744 -20.20923 -20.20923  -1.04396
 Alpha  occ. eigenvalues --   -1.04393  -0.66418  -0.66391  -0.22831  -0.22831
 Alpha  occ. eigenvalues --   -0.20158  -0.20151  -0.16305  -0.16131  -0.01287
 Alpha  occ. eigenvalues --   -0.01287   0.18829
 Alpha virt. eigenvalues --    0.26816   0.72150   0.72273   1.11735   1.11884
 Alpha virt. eigenvalues --    1.13674   1.13677   1.14668   1.14671   1.16315
 Alpha virt. eigenvalues --    1.16481   1.22173   1.22182   1.23655   1.23663

 Mulliken charges and spin densities:
               1          2
     1  O   -0.457848   0.000000
     2  O   -0.542152   0.000000
     3  O   -0.542152   0.000000
     4  O   -0.457848   0.000000
 Sum of Mulliken charges =  -2.00000   0.00000

 Dipole moment (field-independent basis, Debye):
    X=             -0.0000    Y=             -0.0000    Z=              0.0000  Tot=              0.0000
 Quadrupole moment (field-independent basis, Debye-Ang):
   XX=            -24.2290   YY=            -25.6584   ZZ=           -147.3283
   XY=              0.0000   XZ=              0.0000   YZ=              0.0000

 CCSD(T)/cc-pVTZ Guess=Read SCF=(VeryTight,CDIIS,VShift=10)\\O2_O2_276\
 61\CCSD=-300.0234653\CCSD(T)=-300.1672019\RMSD=3.268e-09\PG=D*H [C*(O1
 Normal termination of Gaussian 16 at Sat Jan 14 23:15:17 2023.
