 Gaussian 16, Revision A.03,
 Gaussian 16:  ES64L-G16RevA.03 25-Dec-2016

 ---------------------------------------------------------------
 #p ROCCSD(T)/cc-pVTZ Guess=Read SCF=(VeryTight,CDIIS,VShift=10)
 ---------------------------------------------------------------

 ---------
 O2_O2_244
 ---------
 Symbolic Z-matrix:
 Charge = -2 Multiplicity = 1

                         Standard orientation:
 ---------------------------------------------------------------------
 Center     Atomic      Atomic             Coordinates (Angstroms)
 Number     Number       Type             X           Y           Z
 ---------------------------------------------------------------------
      1          8           0        0.000000    0.000000    2.519923
      2          8           0        0.000000    0.000000    3.872303
      3          8           0        0.000000    0.000000   -3.872303
      4          8           0        0.000000    0.000000   -2.519923
 ---------------------------------------------------------------------

 SCF Done:  E(ROHF) =  -298.914293638     A.U. after    8 cycles
 E2 =    -0.1375429879D+01 EUMP2 =    -0.30028972351722D+03
 CCSD(T)
 CCSD(T)= -0.30015985930D+03

 Unable to determine electronic state:  an orbital has unidentified symmetry.
 Alpha  occ. eigenvalues --  -20.21242 -20.21242 -20.20295 -20.20295  -1.03838
 Alpha  occ. eigenvalues --   -1.03834  -0.65852  -0.65816  -0.22274  -0.22273
 Alpha  occ. eigenvalues --   -0.19586  -0.19564  -0.15771  -0.15555  -0.00724
 Alpha  occ. eigenvalues --   -0.00721   0.19087
 Alpha virt. eigenvalues --    0.27693   0.72584   0.73054   1.12097   1.12641
 Alpha virt. eigenvalues --    1.14213   1.14226   1.15205   1.15218   1.16713
 Alpha virt. eigenvalues --    1.17460   1.22723   1.22768   1.24205   1.24250

 Mulliken charges and spin densities:
               1          2
     1  O   -0.451599   0.000000
     2  O   -0.548401   0.000000
     3  O   -0.548401   0.000000
     4  O   -0.451599   0.000000
 Sum of Mulliken charges =  -2.00000   0.00000

 Dipole moment (field-independent basis, Debye):
    X=             -0.0000    Y=             -0.0000    Z=             -0.0000  Tot=              0.0000
 Quadrupole moment (field-independent basis, Debye-Ang):
   XX=            -24.2315   YY=            -25.6605   ZZ=           -133.2343
   XY=              0.0000   XZ=              0.0000   YZ=              0.0000

 CCSD(T)/cc-pVTZ Guess=Read SCF=(VeryTight,CDIIS,VShift=10)\\O2_O2_244\
 3098\CCSD=-300.0183835\CCSD(T)=-300.1598593\RMSD=3.949e-09\PG=D*H [C*(
 Normal termination of Gaussian 16 at Sat Jan 14 22:32:26 2023.
