 Gaussian 16, Revision A.03,
 Gaussian 16:  ES64L-G16RevA.03 25-Dec-2016

 -------------------------------------
 #p CCSD(T)/cc-pVTZ Guess=Read SCF=XQC
 -------------------------------------

 ---------
 O2_O2_228
 ---------
 Symbolic Z-matrix:
 Charge = -2 Multiplicity = 1

                         Standard orientation:
 ---------------------------------------------------------------------
 Center     Atomic      Atomic             Coordinates (Angstroms)
 Number     Number       Type             X           Y           Z
 ---------------------------------------------------------------------
      1          8           0        0.000000    0.000000    2.406654
      2          8           0        0.000000    0.000000    3.759034
      3          8           0        0.000000    0.000000   -3.759034
      4          8           0        0.000000    0.000000   -2.406654
 ---------------------------------------------------------------------

 SCF Done:  E(RHF) =  -298.912897882     A.U. after    8 cycles
 E2 =    -0.1358998008D+01 EUMP2 =    -0.30027189588975D+03
 CCSD(T)
 CCSD(T)= -0.30015577723D+03

 Unable to determine electronic state:  an orbital has unidentified symmetry.
 Alpha  occ. eigenvalues --  -20.20968 -20.20968 -20.19945 -20.19945  -1.03530
 Alpha  occ. eigenvalues --   -1.03525  -0.65540  -0.65497  -0.21967  -0.21964
 Alpha  occ. eigenvalues --   -0.19272  -0.19235  -0.15477  -0.15235  -0.00413
 Alpha  occ. eigenvalues --   -0.00407   0.19227
 Alpha virt. eigenvalues --    0.28184   0.72731   0.73575   1.12161   1.13119
 Alpha virt. eigenvalues --    1.14506   1.14534   1.15497   1.15525   1.16785
 Alpha virt. eigenvalues --    1.18257   1.23012   1.23109   1.24496   1.24591

 Mulliken charges:
               1
     1  O   -0.447946
     2  O   -0.552054
     3  O   -0.552054
     4  O   -0.447946
 Sum of Mulliken charges =  -2.00000

 Dipole moment (field-independent basis, Debye):
    X=             -0.0000    Y=             -0.0000    Z=              0.0000  Tot=              0.0000
 Quadrupole moment (field-independent basis, Debye-Ang):
   XX=            -24.2334   YY=            -25.6618   ZZ=           -126.5730
   XY=              0.0000   XZ=              0.0000   YZ=              0.0000

 Normal termination of Gaussian 16 at Wed Jan  4 21:21:53 2023.
