 Gaussian 16, Revision A.03,
 Gaussian 16:  ES64L-G16RevA.03 25-Dec-2016

 ---------------------------------------------------------------
 #p ROCCSD(T)/cc-pVTZ Guess=Read SCF=(VeryTight,CDIIS,VShift=10)
 ---------------------------------------------------------------

 ---------
 O2_O2_258
 ---------
 Symbolic Z-matrix:
 Charge = -2 Multiplicity = 1

                         Standard orientation:
 ---------------------------------------------------------------------
 Center     Atomic      Atomic             Coordinates (Angstroms)
 Number     Number       Type             X           Y           Z
 ---------------------------------------------------------------------
      1          8           0        0.000000    0.000000    2.619033
      2          8           0        0.000000    0.000000    3.971413
      3          8           0        0.000000    0.000000   -3.971413
      4          8           0        0.000000    0.000000   -2.619033
 ---------------------------------------------------------------------

 SCF Done:  E(ROHF) =  -298.915465303     A.U. after    8 cycles
 E2 =    -0.1389697250D+01 EUMP2 =    -0.30030516255229D+03
 CCSD(T)
 CCSD(T)= -0.30016319807D+03

 Unable to determine electronic state:  an orbital has unidentified symmetry.
 Alpha  occ. eigenvalues --  -20.21469 -20.21469 -20.20581 -20.20581  -1.04091
 Alpha  occ. eigenvalues --   -1.04088  -0.66109  -0.66078  -0.22527  -0.22527
 Alpha  occ. eigenvalues --   -0.19845  -0.19832  -0.16013  -0.15817  -0.00980
 Alpha  occ. eigenvalues --   -0.00978   0.18971
 Alpha virt. eigenvalues --    0.27293   0.72409   0.72677   1.11962   1.12279
 Alpha virt. eigenvalues --    1.13969   1.13976   1.14962   1.14969   1.16567
 Alpha virt. eigenvalues --    1.16963   1.22476   1.22499   1.23958   1.23980

 Mulliken charges and spin densities:
               1          2
     1  O   -0.454492   0.000000
     2  O   -0.545508   0.000000
     3  O   -0.545508   0.000000
     4  O   -0.454492   0.000000
 Sum of Mulliken charges =  -2.00000   0.00000

 Dipole moment (field-independent basis, Debye):
    X=             -0.0000    Y=              0.0000    Z=              0.0000  Tot=              0.0000
 Quadrupole moment (field-independent basis, Debye-Ang):
   XX=            -24.2303   YY=            -25.6595   ZZ=           -139.2741
   XY=              0.0000   XZ=              0.0000   YZ=              0.0000

 CCSD(T)/cc-pVTZ Guess=Read SCF=(VeryTight,CDIIS,VShift=10)\\O2_O2_258\
 3138\CCSD=-300.0206865\CCSD(T)=-300.1631981\RMSD=3.656e-09\PG=D*H [C*(
 Normal termination of Gaussian 16 at Sat Jan 14 22:50:26 2023.
