 Gaussian 16, Revision A.03,
 Gaussian 16:  ES64L-G16RevA.03 25-Dec-2016

 ---------------------------------------------------------------
 #p ROCCSD(T)/cc-pVTZ Guess=Read SCF=(VeryTight,CDIIS,VShift=10)
 ---------------------------------------------------------------

 ---------
 O2_O2_237
 ---------
 Symbolic Z-matrix:
 Charge = -2 Multiplicity = 1

                         Standard orientation:
 ---------------------------------------------------------------------
 Center     Atomic      Atomic             Coordinates (Angstroms)
 Number     Number       Type             X           Y           Z
 ---------------------------------------------------------------------
      1          8           0        0.000000    0.000000    2.470368
      2          8           0        0.000000    0.000000    3.822748
      3          8           0        0.000000    0.000000   -3.822748
      4          8           0        0.000000    0.000000   -2.470368
 ---------------------------------------------------------------------

 SCF Done:  E(ROHF) =  -298.913689829     A.U. after    8 cycles
 E2 =    -0.1368259884D+01 EUMP2 =    -0.30028194971304D+03
 CCSD(T)
 CCSD(T)= -0.30015811022D+03

 Unable to determine electronic state:  an orbital has unidentified symmetry.
 Alpha  occ. eigenvalues --  -20.21124 -20.21124 -20.20145 -20.20145  -1.03706
 Alpha  occ. eigenvalues --   -1.03702  -0.65718  -0.65679  -0.22142  -0.22141
 Alpha  occ. eigenvalues --   -0.19451  -0.19424  -0.15645  -0.15418  -0.00590
 Alpha  occ. eigenvalues --   -0.00587   0.19148
 Alpha virt. eigenvalues --    0.27903   0.72657   0.73268   1.12140   1.12842
 Alpha virt. eigenvalues --    1.14339   1.14358   1.15331   1.15349   1.16759
 Alpha virt. eigenvalues --    1.17771   1.22849   1.22912   1.24332   1.24394

 Mulliken charges and spin densities:
               1          2
     1  O   -0.450049   0.000000
     2  O   -0.549951   0.000000
     3  O   -0.549951   0.000000
     4  O   -0.450049   0.000000
 Sum of Mulliken charges =  -2.00000   0.00000

 Dipole moment (field-independent basis, Debye):
    X=             -0.0000    Y=              0.0000    Z=              0.0000  Tot=              0.0000
 Quadrupole moment (field-independent basis, Debye-Ang):
   XX=            -24.2323   YY=            -25.6610   ZZ=           -130.2882
   XY=              0.0000   XZ=              0.0000   YZ=              0.0000

 CCSD(T)/cc-pVTZ Guess=Read SCF=(VeryTight,CDIIS,VShift=10)\\O2_O2_237\
 8019\CCSD=-300.0171834\CCSD(T)=-300.1581102\RMSD=4.065e-09\PG=D*H [C*(
 Normal termination of Gaussian 16 at Sat Jan 14 22:23:01 2023.
