 Gaussian 16, Revision A.03,
 Gaussian 16:  ES64L-G16RevA.03 25-Dec-2016

 ---------------------------------------------------------------
 #p ROCCSD(T)/cc-pVTZ Guess=Read SCF=(VeryTight,CDIIS,VShift=10)
 ---------------------------------------------------------------

 ---------
 O2_O2_227
 ---------
 Symbolic Z-matrix:
 Charge = -2 Multiplicity = 1

                         Standard orientation:
 ---------------------------------------------------------------------
 Center     Atomic      Atomic             Coordinates (Angstroms)
 Number     Number       Type             X           Y           Z
 ---------------------------------------------------------------------
      1          8           0        0.000000    0.000000    2.399575
      2          8           0        0.000000    0.000000    3.751955
      3          8           0        0.000000    0.000000   -3.751955
      4          8           0        0.000000    0.000000   -2.399575
 ---------------------------------------------------------------------

 SCF Done:  E(ROHF) =  -298.912808914     A.U. after    8 cycles
 E2 =    -0.1357965516D+01 EUMP2 =    -0.30027077442938D+03
 CCSD(T)
 CCSD(T)= -0.30015551185D+03

 Unable to determine electronic state:  an orbital has unidentified symmetry.
 Alpha  occ. eigenvalues --  -20.20950 -20.20950 -20.19922 -20.19922  -1.03510
 Alpha  occ. eigenvalues --   -1.03505  -0.65519  -0.65476  -0.21947  -0.21944
 Alpha  occ. eigenvalues --   -0.19252  -0.19213  -0.15458  -0.15214  -0.00393
 Alpha  occ. eigenvalues --   -0.00387   0.19236
 Alpha virt. eigenvalues --    0.28216   0.72738   0.73611   1.12161   1.13151
 Alpha virt. eigenvalues --    1.14524   1.14554   1.15516   1.15545   1.16786
 Alpha virt. eigenvalues --    1.18319   1.23030   1.23131   1.24514   1.24614

 Mulliken charges and spin densities:
               1          2
     1  O   -0.447704   0.000000
     2  O   -0.552296   0.000000
     3  O   -0.552296   0.000000
     4  O   -0.447704   0.000000
 Sum of Mulliken charges =  -2.00000   0.00000

 Dipole moment (field-independent basis, Debye):
    X=             -0.0000    Y=             -0.0000    Z=              0.0000  Tot=              0.0000
 Quadrupole moment (field-independent basis, Debye-Ang):
   XX=            -24.2336   YY=            -25.6619   ZZ=           -126.1652
   XY=              0.0000   XZ=              0.0000   YZ=              0.0000

 CCSD(T)/cc-pVTZ Guess=Read SCF=(VeryTight,CDIIS,VShift=10)\\O2_O2_227\
 1101\CCSD=-300.0154107\CCSD(T)=-300.1555119\RMSD=4.148e-09\PG=D*H [C*(
 Normal termination of Gaussian 16 at Sat Jan 14 22:09:50 2023.
