 Gaussian 16, Revision A.03,
 Gaussian 16:  ES64L-G16RevA.03 25-Dec-2016

 ---------------------------------------------------------------
 #p ROCCSD(T)/cc-pVTZ Guess=Read SCF=(VeryTight,CDIIS,VShift=10)
 ---------------------------------------------------------------

 --------
 O2_O2_91
 --------
 Symbolic Z-matrix:
 Charge = -2 Multiplicity = 1

                         Standard orientation:
 ---------------------------------------------------------------------
 Center     Atomic      Atomic             Coordinates (Angstroms)
 Number     Number       Type             X           Y           Z
 ---------------------------------------------------------------------
      1          8           0        0.000000    0.000000    1.436791
      2          8           0        0.000000    0.000000    2.789171
      3          8           0        0.000000    0.000000   -2.789171
      4          8           0        0.000000    0.000000   -1.436791
 ---------------------------------------------------------------------

 SCF Done:  E(ROHF) =  -298.905437621     A.U. after    9 cycles
 E2 =    -0.1201763757D+01 EUMP2 =    -0.30010720137825D+03
 CCSD(T)
 CCSD(T)= -0.30010170531D+03

 Unable to determine electronic state:  an orbital has unidentified symmetry.
 Alpha  occ. eigenvalues --  -20.18196 -20.18195 -20.15317 -20.15317  -0.99907
 Alpha  occ. eigenvalues --   -0.99750  -0.62093  -0.61183  -0.18412  -0.18133
 Alpha  occ. eigenvalues --   -0.16296  -0.14186  -0.12139  -0.11102   0.03094
 Alpha  occ. eigenvalues --    0.03682   0.20247
 Alpha virt. eigenvalues --    0.35154   0.74713   0.81841   1.13821   1.15792
 Alpha virt. eigenvalues --    1.16268   1.17514   1.17973   1.18985   1.19921
 Alpha virt. eigenvalues --    1.23511   1.24984   1.32312   1.33795   1.38081

 Mulliken charges and spin densities:
               1          2
     1  O   -0.384518   0.000000
     2  O   -0.615482   0.000000
     3  O   -0.615482   0.000000
     4  O   -0.384518   0.000000
 Sum of Mulliken charges =  -2.00000   0.00000

 Dipole moment (field-independent basis, Debye):
    X=             -0.0000    Y=              0.0000    Z=              0.0000  Tot=              0.0000
 Quadrupole moment (field-independent basis, Debye-Ang):
   XX=            -24.3499   YY=            -25.6879   ZZ=            -80.3131
   XY=              0.0000   XZ=              0.0000   YZ=              0.0000

 CCSD(T)/cc-pVTZ Guess=Read SCF=(VeryTight,CDIIS,VShift=10)\\O2_O2_91\\
 633\CCSD=-299.9853223\CCSD(T)=-300.1017053\RMSD=2.626e-09\PG=D*H [C*(O
 Normal termination of Gaussian 16 at Sat Jan 14 19:11:09 2023.
