 Gaussian 16, Revision A.03,
 Gaussian 16:  ES64L-G16RevA.03 25-Dec-2016

 ---------------------------------------------------------------
 #p ROCCSD(T)/cc-pVTZ Guess=Read SCF=(VeryTight,CDIIS,VShift=10)
 ---------------------------------------------------------------

 ---------
 O2_O2_183
 ---------
 Symbolic Z-matrix:
 Charge = -2 Multiplicity = 1

                         Standard orientation:
 ---------------------------------------------------------------------
 Center     Atomic      Atomic             Coordinates (Angstroms)
 Number     Number       Type             X           Y           Z
 ---------------------------------------------------------------------
      1          8           0        0.000000    0.000000    2.088086
      2          8           0        0.000000    0.000000    3.440466
      3          8           0        0.000000    0.000000   -3.440466
      4          8           0        0.000000    0.000000   -2.088086
 ---------------------------------------------------------------------

 SCF Done:  E(ROHF) =  -298.908833899     A.U. after    8 cycles
 E2 =    -0.1311584551D+01 EUMP2 =    -0.30022041844964D+03
 CCSD(T)
 CCSD(T)= -0.30014246598D+03

 Unable to determine electronic state:  an orbital has unidentified symmetry.
 Alpha  occ. eigenvalues --  -20.20114 -20.20114 -20.18800 -20.18800  -1.02544
 Alpha  occ. eigenvalues --   -1.02533  -0.64542  -0.64455  -0.20984  -0.20971
 Alpha  occ. eigenvalues --   -0.18296  -0.18128  -0.14546  -0.14195   0.00578
 Alpha  occ. eigenvalues --    0.00610   0.19646
 Alpha virt. eigenvalues --    0.29807   0.72587   0.75726   1.11043   1.14560
 Alpha virt. eigenvalues --    1.15387   1.15571   1.16381   1.16453   1.16556
 Alpha virt. eigenvalues --    1.23511   1.23756   1.24407   1.25249   1.25891

 Mulliken charges and spin densities:
               1          2
     1  O   -0.435155   0.000000
     2  O   -0.564845   0.000000
     3  O   -0.564845   0.000000
     4  O   -0.435155   0.000000
 Sum of Mulliken charges =  -2.00000   0.00000

 Dipole moment (field-independent basis, Debye):
    X=             -0.0000    Y=              0.0000    Z=              0.0000  Tot=              0.0000
 Quadrupole moment (field-independent basis, Debye-Ang):
   XX=            -24.2440   YY=            -25.6669   ZZ=           -109.2227
   XY=              0.0000   XZ=              0.0000   YZ=              0.0000

 CCSD(T)/cc-pVTZ Guess=Read SCF=(VeryTight,CDIIS,VShift=10)\\O2_O2_183\
 993\CCSD=-300.0067896\CCSD(T)=-300.142466\RMSD=3.600e-09\PG=D*H [C*(O1
 Normal termination of Gaussian 16 at Sat Jan 14 21:10:22 2023.
