 Gaussian 16, Revision A.03,
 Gaussian 16:  ES64L-G16RevA.03 25-Dec-2016

 ---------------------------------------------------------------
 #p ROCCSD(T)/cc-pVTZ Guess=Read SCF=(VeryTight,CDIIS,VShift=10)
 ---------------------------------------------------------------

 ---------
 O2_O2_219
 ---------
 Symbolic Z-matrix:
 Charge = -2 Multiplicity = 1

                         Standard orientation:
 ---------------------------------------------------------------------
 Center     Atomic      Atomic             Coordinates (Angstroms)
 Number     Number       Type             X           Y           Z
 ---------------------------------------------------------------------
      1          8           0        0.000000    0.000000    2.342940
      2          8           0        0.000000    0.000000    3.695320
      3          8           0        0.000000    0.000000   -3.695320
      4          8           0        0.000000    0.000000   -2.342940
 ---------------------------------------------------------------------

 SCF Done:  E(ROHF) =  -298.912091327     A.U. after    8 cycles
 E2 =    -0.1349678550D+01 EUMP2 =    -0.30026176987656D+03
 CCSD(T)
 CCSD(T)= -0.30015334374D+03

 Unable to determine electronic state:  an orbital has unidentified symmetry.
 Alpha  occ. eigenvalues --  -20.20807 -20.20807 -20.19736 -20.19736  -1.03348
 Alpha  occ. eigenvalues --   -1.03342  -0.65354  -0.65306  -0.21784  -0.21781
 Alpha  occ. eigenvalues --   -0.19088  -0.19036  -0.15304  -0.15044  -0.00229
 Alpha  occ. eigenvalues --   -0.00221   0.19308
 Alpha virt. eigenvalues --    0.28478   0.72777   0.73920   1.12128   1.13412
 Alpha virt. eigenvalues --    1.14677   1.14719   1.15668   1.15709   1.16770
 Alpha virt. eigenvalues --    1.18873   1.23175   1.23320   1.24660   1.24803

 Mulliken charges and spin densities:
               1          2
     1  O   -0.445709   0.000000
     2  O   -0.554291   0.000000
     3  O   -0.554291   0.000000
     4  O   -0.445709   0.000000
 Sum of Mulliken charges =  -2.00000   0.00000

 Dipole moment (field-independent basis, Debye):
    X=             -0.0000    Y=             -0.0000    Z=             -0.0000  Tot=              0.0000
 Quadrupole moment (field-independent basis, Debye-Ang):
   XX=            -24.2348   YY=            -25.6626   ZZ=           -122.9393
   XY=              0.0000   XZ=              0.0000   YZ=              0.0000

 CCSD(T)/cc-pVTZ Guess=Read SCF=(VeryTight,CDIIS,VShift=10)\\O2_O2_219\
 49\CCSD=-300.0139425\CCSD(T)=-300.1533437\RMSD=4.095e-09\PG=D*H [C*(O1
 Normal termination of Gaussian 16 at Sat Jan 14 21:57:33 2023.
