 Gaussian 16, Revision A.03,
 Gaussian 16:  ES64L-G16RevA.03 25-Dec-2016

 -------------------------------------
 #p CCSD(T)/cc-pVTZ Guess=Read SCF=XQC
 -------------------------------------

 ---------
 O2_O2_299
 ---------
 Symbolic Z-matrix:
 Charge = -2 Multiplicity = 1

                         Standard orientation:
 ---------------------------------------------------------------------
 Center     Atomic      Atomic             Coordinates (Angstroms)
 Number     Number       Type             X           Y           Z
 ---------------------------------------------------------------------
      1          8           0        0.000000    0.000000    2.909283
      2          8           0        0.000000    0.000000    4.261664
      3          8           0        0.000000    0.000000   -4.261664
      4          8           0        0.000000    0.000000   -2.909283
 ---------------------------------------------------------------------

 SCF Done:  E(RHF) =  -298.918600828     A.U. after    8 cycles
 E2 =    -0.1431094120D+01 EUMP2 =    -0.30034969494833D+03
 CCSD(T)
 CCSD(T)= -0.30017189286D+03

 Unable to determine electronic state:  an orbital has unidentified symmetry.
 Alpha  occ. eigenvalues --  -20.22068 -20.22068 -20.21323 -20.21323  -1.04754
 Alpha  occ. eigenvalues --   -1.04752  -0.66781  -0.66758  -0.23189  -0.23189
 Alpha  occ. eigenvalues --   -0.20526  -0.20523  -0.16649  -0.16499  -0.01649
 Alpha  occ. eigenvalues --   -0.01649   0.18660
 Alpha virt. eigenvalues --    0.26258   0.71804   0.71845   1.11414   1.11466
 Alpha virt. eigenvalues --    1.13325   1.13326   1.14319   1.14321   1.15953
 Alpha virt. eigenvalues --    1.16004   1.21813   1.21816   1.23293   1.23296

 Mulliken charges:
               1
     1  O   -0.461625
     2  O   -0.538375
     3  O   -0.538375
     4  O   -0.461625
 Sum of Mulliken charges =  -2.00000

 Dipole moment (field-independent basis, Debye):
    X=             -0.0000    Y=             -0.0000    Z=              0.0000  Tot=              0.0000
 Quadrupole moment (field-independent basis, Debye-Ang):
   XX=            -24.2277   YY=            -25.6572   ZZ=           -158.0911
   XY=              0.0000   XZ=              0.0000   YZ=              0.0000

 Normal termination of Gaussian 16 at Wed Jan  4 22:04:28 2023.
