 Gaussian 16, Revision A.03,
 Gaussian 16:  ES64L-G16RevA.03 25-Dec-2016

 ---------------------------------------------------------------
 #p ROCCSD(T)/cc-pVTZ Guess=Read SCF=(VeryTight,CDIIS,VShift=10)
 ---------------------------------------------------------------

 --------
 O2_O2_41
 --------
 Symbolic Z-matrix:
 Charge = -2 Multiplicity = 1

                         Standard orientation:
 ---------------------------------------------------------------------
 Center     Atomic      Atomic             Coordinates (Angstroms)
 Number     Number       Type             X           Y           Z
 ---------------------------------------------------------------------
      1          8           0        0.000000    0.000000    1.082827
      2          8           0        0.000000    0.000000    2.435207
      3          8           0        0.000000    0.000000   -2.435207
      4          8           0        0.000000    0.000000   -1.082827
 ---------------------------------------------------------------------

 SCF Done:  E(ROHF) =  -298.909006750     A.U. after    9 cycles
 E2 =    -0.1132346252D+01 EUMP2 =    -0.30004135300240D+03
 CCSD(T)
 CCSD(T)= -0.30006070995D+03

 Unable to determine electronic state:  an orbital has unidentified symmetry.
 Alpha  occ. eigenvalues --  -20.17122 -20.17119 -20.11989 -20.11989  -0.98287
 Alpha  occ. eigenvalues --   -0.97330  -0.61767  -0.57422  -0.16973  -0.16641
 Alpha  occ. eigenvalues --   -0.15568  -0.10780  -0.08799  -0.08289   0.04541
 Alpha  occ. eigenvalues --    0.06716   0.19496
 Alpha virt. eigenvalues --    0.40801   0.78707   0.85982   1.16499   1.17010
 Alpha virt. eigenvalues --    1.17904   1.18716   1.21484   1.22336   1.24987
 Alpha virt. eigenvalues --    1.26402   1.36711   1.39037   1.40281   1.40836

 Mulliken charges and spin densities:
               1          2
     1  O   -0.317161   0.000000
     2  O   -0.682839   0.000000
     3  O   -0.682839   0.000000
     4  O   -0.317161   0.000000
 Sum of Mulliken charges =  -2.00000   0.00000

 Dipole moment (field-independent basis, Debye):
    X=             -0.0000    Y=              0.0000    Z=              0.0000  Tot=              0.0000
 Quadrupole moment (field-independent basis, Debye-Ang):
   XX=            -24.4783   YY=            -25.6978   ZZ=            -68.8344
   XY=              0.0000   XZ=              0.0000   YZ=              0.0000

 CCSD(T)/cc-pVTZ Guess=Read SCF=(VeryTight,CDIIS,VShift=10)\\O2_O2_41\\
 3\CCSD=-299.967929\CCSD(T)=-300.06071\RMSD=6.297e-09\PG=D*H [C*(O1O1.O
 Normal termination of Gaussian 16 at Sat Jan 14 18:09:20 2023.
