 Gaussian 16, Revision A.03,
 Gaussian 16:  ES64L-G16RevA.03 25-Dec-2016

 -------------------------------------
 #p CCSD(T)/cc-pVTZ Guess=Read SCF=XQC
 -------------------------------------

 ---------
 O2_O2_103
 ---------
 Symbolic Z-matrix:
 Charge = -2 Multiplicity = 1

                         Standard orientation:
 ---------------------------------------------------------------------
 Center     Atomic      Atomic             Coordinates (Angstroms)
 Number     Number       Type             X           Y           Z
 ---------------------------------------------------------------------
      1          8           0        0.000000    0.000000    1.521743
      2          8           0        0.000000    0.000000    2.874123
      3          8           0        0.000000    0.000000   -2.874123
      4          8           0        0.000000    0.000000   -1.521743
 ---------------------------------------------------------------------

 SCF Done:  E(RHF) =  -298.904896395     A.U. after    9 cycles
 E2 =    -0.1217588423D+01 EUMP2 =    -0.30012248481769D+03
 CCSD(T)
 CCSD(T)= -0.30010857941D+03

 Unable to determine electronic state:  an orbital has unidentified symmetry.
 Alpha  occ. eigenvalues --  -20.18442 -20.18441 -20.15905 -20.15905  -1.00299
 Alpha  occ. eigenvalues --   -1.00194  -0.62403  -0.61765  -0.18785  -0.18595
 Alpha  occ. eigenvalues --   -0.16484  -0.14943  -0.12486  -0.11615   0.02738
 Alpha  occ. eigenvalues --    0.03160   0.20239
 Alpha virt. eigenvalues --    0.34200   0.73756   0.81021   1.11257   1.15769
 Alpha virt. eigenvalues --    1.16339   1.17455   1.17499   1.18444   1.19391
 Alpha virt. eigenvalues --    1.23573   1.25071   1.30612   1.32096   1.37784

 Mulliken charges:
               1
     1  O   -0.394549
     2  O   -0.605451
     3  O   -0.605451
     4  O   -0.394549
 Sum of Mulliken charges =  -2.00000

 Dipole moment (field-independent basis, Debye):
    X=             -0.0000    Y=              0.0000    Z=              0.0000  Tot=              0.0000
 Quadrupole moment (field-independent basis, Debye-Ang):
   XX=            -24.3249   YY=            -25.6841   ZZ=            -83.5610
   XY=              0.0000   XZ=              0.0000   YZ=              0.0000

 Normal termination of Gaussian 16 at Wed Jan  4 20:10:13 2023.
