 Gaussian 16, Revision A.03,
 Gaussian 16:  ES64L-G16RevA.03 25-Dec-2016

 ---------------------------------------------------------------
 #p ROCCSD(T)/cc-pVTZ Guess=Read SCF=(VeryTight,CDIIS,VShift=10)
 ---------------------------------------------------------------

 ---------
 O2_O2_179
 ---------
 Symbolic Z-matrix:
 Charge = -2 Multiplicity = 1

                         Standard orientation:
 ---------------------------------------------------------------------
 Center     Atomic      Atomic             Coordinates (Angstroms)
 Number     Number       Type             X           Y           Z
 ---------------------------------------------------------------------
      1          8           0        0.000000    0.000000    2.059769
      2          8           0        0.000000    0.000000    3.412149
      3          8           0        0.000000    0.000000   -3.412149
      4          8           0        0.000000    0.000000   -2.059769
 ---------------------------------------------------------------------

 SCF Done:  E(ROHF) =  -298.908484097     A.U. after    8 cycles
 E2 =    -0.1307245387D+01 EUMP2 =    -0.30021572948408D+03
 CCSD(T)
 CCSD(T)= -0.30014112926D+03

 Unable to determine electronic state:  an orbital has unidentified symmetry.
 Alpha  occ. eigenvalues --  -20.20034 -20.20033 -20.18685 -20.18685  -1.02447
 Alpha  occ. eigenvalues --   -1.02435  -0.64445  -0.64350  -0.20887  -0.20873
 Alpha  occ. eigenvalues --   -0.18203  -0.18014  -0.14455  -0.14091   0.00674
 Alpha  occ. eigenvalues --    0.00712   0.19684
 Alpha virt. eigenvalues --    0.29972   0.72530   0.75966   1.10806   1.14670
 Alpha virt. eigenvalues --    1.15466   1.15680   1.16426   1.16461   1.16663
 Alpha virt. eigenvalues --    1.23805   1.24325   1.24563   1.25299   1.26047

 Mulliken charges and spin densities:
               1          2
     1  O   -0.433790   0.000000
     2  O   -0.566210   0.000000
     3  O   -0.566210   0.000000
     4  O   -0.433790   0.000000
 Sum of Mulliken charges =  -2.00000   0.00000

 Dipole moment (field-independent basis, Debye):
    X=             -0.0000    Y=              0.0000    Z=             -0.0000  Tot=              0.0000
 Quadrupole moment (field-independent basis, Debye-Ang):
   XX=            -24.2456   YY=            -25.6675   ZZ=           -107.7798
   XY=              0.0000   XZ=              0.0000   YZ=              0.0000

 CCSD(T)/cc-pVTZ Guess=Read SCF=(VeryTight,CDIIS,VShift=10)\\O2_O2_179\
 8967\CCSD=-300.0059421\CCSD(T)=-300.1411293\RMSD=3.708e-09\PG=D*H [C*(
 Normal termination of Gaussian 16 at Sat Jan 14 21:05:06 2023.
