 Gaussian 16, Revision A.03,
 Gaussian 16:  ES64L-G16RevA.03 25-Dec-2016

 ---------------------------------------------------------------
 #p ROCCSD(T)/cc-pVTZ Guess=Read SCF=(VeryTight,CDIIS,VShift=10)
 ---------------------------------------------------------------

 ---------
 O2_O2_116
 ---------
 Symbolic Z-matrix:
 Charge = -2 Multiplicity = 1

                         Standard orientation:
 ---------------------------------------------------------------------
 Center     Atomic      Atomic             Coordinates (Angstroms)
 Number     Number       Type             X           Y           Z
 ---------------------------------------------------------------------
      1          8           0        0.000000    0.000000    1.613774
      2          8           0        0.000000    0.000000    2.966154
      3          8           0        0.000000    0.000000   -2.966154
      4          8           0        0.000000    0.000000   -1.613774
 ---------------------------------------------------------------------

 SCF Done:  E(ROHF) =  -298.904788589     A.U. after    9 cycles
 E2 =    -0.1234162969D+01 EUMP2 =    -0.30013895155832D+03
 CCSD(T)
 CCSD(T)= -0.30011535869D+03

 Unable to determine electronic state:  an orbital has unidentified symmetry.
 Alpha  occ. eigenvalues --  -20.18712 -20.18711 -20.16484 -20.16484  -1.00709
 Alpha  occ. eigenvalues --   -1.00639  -0.62760  -0.62321  -0.19179  -0.19054
 Alpha  occ. eigenvalues --   -0.16737  -0.15643  -0.12853  -0.12124   0.02358
 Alpha  occ. eigenvalues --    0.02649   0.20191
 Alpha virt. eigenvalues --    0.33281   0.72914   0.80148   1.09447   1.15717
 Alpha virt. eigenvalues --    1.16346   1.17084   1.17439   1.17882   1.18838
 Alpha virt. eigenvalues --    1.23715   1.25228   1.29014   1.30499   1.37434

 Mulliken charges and spin densities:
               1          2
     1  O   -0.403797  -0.000000
     2  O   -0.596203  -0.000000
     3  O   -0.596203  -0.000000
     4  O   -0.403797  -0.000000
 Sum of Mulliken charges =  -2.00000  -0.00000

 Dipole moment (field-independent basis, Debye):
    X=             -0.0000    Y=              0.0000    Z=             -0.0000  Tot=              0.0000
 Quadrupole moment (field-independent basis, Debye-Ang):
   XX=            -24.3024   YY=            -25.6804   ZZ=            -87.2626
   XY=              0.0000   XZ=              0.0000   YZ=              0.0000

 CCSD(T)/cc-pVTZ Guess=Read SCF=(VeryTight,CDIIS,VShift=10)\\O2_O2_116\
 286\CCSD=-299.9914626\CCSD(T)=-300.1153587\RMSD=1.827e-09\PG=D*H [C*(O
 Normal termination of Gaussian 16 at Sat Jan 14 19:42:20 2023.
