 Gaussian 16, Revision A.03,
 Gaussian 16:  ES64L-G16RevA.03 25-Dec-2016

 -------------------------------------
 #p CCSD(T)/cc-pVTZ Guess=Read SCF=XQC
 -------------------------------------

 ---------
 O2_O2_264
 ---------
 Symbolic Z-matrix:
 Charge = -2 Multiplicity = 1

                         Standard orientation:
 ---------------------------------------------------------------------
 Center     Atomic      Atomic             Coordinates (Angstroms)
 Number     Number       Type             X           Y           Z
 ---------------------------------------------------------------------
      1          8           0        0.000000    0.000000    2.661509
      2          8           0        0.000000    0.000000    4.013889
      3          8           0        0.000000    0.000000   -4.013889
      4          8           0        0.000000    0.000000   -2.661509
 ---------------------------------------------------------------------

 SCF Done:  E(RHF) =  -298.915951920     A.U. after    8 cycles
 E2 =    -0.1395787015D+01 EUMP2 =    -0.30031173893464D+03
 CCSD(T)
 CCSD(T)= -0.30016456551D+03

 Unable to determine electronic state:  an orbital has unidentified symmetry.
 Alpha  occ. eigenvalues --  -20.21563 -20.21563 -20.20698 -20.20698  -1.04195
 Alpha  occ. eigenvalues --   -1.04192  -0.66214  -0.66185  -0.22631  -0.22631
 Alpha  occ. eigenvalues --   -0.19952  -0.19941  -0.16112  -0.15924  -0.01085
 Alpha  occ. eigenvalues --   -0.01084   0.18922
 Alpha virt. eigenvalues --    0.27130   0.72326   0.72534   1.11891   1.12139
 Alpha virt. eigenvalues --    1.13869   1.13874   1.14862   1.14867   1.16489
 Alpha virt. eigenvalues --    1.16787   1.22373   1.22390   1.23855   1.23871

 Mulliken charges:
               1
     1  O   -0.455653
     2  O   -0.544347
     3  O   -0.544347
     4  O   -0.455653
 Sum of Mulliken charges =  -2.00000

 Dipole moment (field-independent basis, Debye):
    X=             -0.0000    Y=             -0.0000    Z=              0.0000  Tot=              0.0000
 Quadrupole moment (field-independent basis, Debye-Ang):
   XX=            -24.2298   YY=            -25.6591   ZZ=           -141.9228
   XY=              0.0000   XZ=              0.0000   YZ=              0.0000

 Normal termination of Gaussian 16 at Wed Jan  4 21:43:11 2023.
