 Gaussian 16, Revision A.03,
 Gaussian 16:  ES64L-G16RevA.03 25-Dec-2016

 ---------------------------------------------------------------
 #p ROCCSD(T)/cc-pVTZ Guess=Read SCF=(VeryTight,CDIIS,VShift=10)
 ---------------------------------------------------------------

 ---------
 O2_O2_289
 ---------
 Symbolic Z-matrix:
 Charge = -2 Multiplicity = 1

                         Standard orientation:
 ---------------------------------------------------------------------
 Center     Atomic      Atomic             Coordinates (Angstroms)
 Number     Number       Type             X           Y           Z
 ---------------------------------------------------------------------
      1          8           0        0.000000    0.000000    2.838490
      2          8           0        0.000000    0.000000    4.190871
      3          8           0        0.000000    0.000000   -4.190871
      4          8           0        0.000000    0.000000   -2.838490
 ---------------------------------------------------------------------

 SCF Done:  E(ROHF) =  -298.917876640     A.U. after    8 cycles
 E2 =    -0.1421038129D+01 EUMP2 =    -0.30033891476924D+03
 CCSD(T)
 CCSD(T)= -0.30016990617D+03

 Unable to determine electronic state:  an orbital has unidentified symmetry.
 Alpha  occ. eigenvalues --  -20.21931 -20.21931 -20.21154 -20.21154  -1.04602
 Alpha  occ. eigenvalues --   -1.04600  -0.66627  -0.66603  -0.23038  -0.23038
 Alpha  occ. eigenvalues --   -0.20370  -0.20366  -0.16503  -0.16343  -0.01496
 Alpha  occ. eigenvalues --   -0.01495   0.18731
 Alpha virt. eigenvalues --    0.26494   0.71955   0.72022   1.11555   1.11639
 Alpha virt. eigenvalues --    1.13473   1.13475   1.14467   1.14469   1.16112
 Alpha virt. eigenvalues --    1.16198   1.21966   1.21970   1.23447   1.23451

 Mulliken charges and spin densities:
               1          2
     1  O   -0.460047   0.000000
     2  O   -0.539953   0.000000
     3  O   -0.539953   0.000000
     4  O   -0.460047   0.000000
 Sum of Mulliken charges =  -2.00000   0.00000

 Dipole moment (field-independent basis, Debye):
    X=             -0.0000    Y=              0.0000    Z=              0.0000  Tot=              0.0000
 Quadrupole moment (field-independent basis, Debye-Ang):
   XX=            -24.2283   YY=            -25.6577   ZZ=           -153.3468
   XY=              0.0000   XZ=              0.0000   YZ=              0.0000

 CCSD(T)/cc-pVTZ Guess=Read SCF=(VeryTight,CDIIS,VShift=10)\\O2_O2_289\
 8062\CCSD=-300.0253512\CCSD(T)=-300.1699062\RMSD=3.013e-09\PG=D*H [C*(
 Normal termination of Gaussian 16 at Sat Jan 14 23:32:21 2023.
