 Gaussian 16, Revision A.03,
 Gaussian 16:  ES64L-G16RevA.03 25-Dec-2016

 -------------------------------------
 #p CCSD(T)/cc-pVTZ Guess=Read SCF=XQC
 -------------------------------------

 -------
 O2_O2_3
 -------
 Symbolic Z-matrix:
 Charge = -2 Multiplicity = 1

                         Standard orientation:
 ---------------------------------------------------------------------
 Center     Atomic      Atomic             Coordinates (Angstroms)
 Number     Number       Type             X           Y           Z
 ---------------------------------------------------------------------
      1          8           0        0.000000    0.000000    0.813813
      2          8           0        0.000000    0.000000    2.166194
      3          8           0        0.000000    0.000000   -2.166194
      4          8           0        0.000000    0.000000   -0.813813
 ---------------------------------------------------------------------

 SCF Done:  E(RHF) =  -298.856059286     A.U. after   10 cycles
 E2 =    -0.1091651798D+01 EUMP2 =    -0.29994771108353D+03
 CCSD(T)
 CCSD(T)= -0.29996758631D+03

 Unable to determine electronic state:  an orbital has unidentified symmetry.
 Alpha  occ. eigenvalues --  -20.16095 -20.16087 -20.07435 -20.07435  -0.98935
 Alpha  occ. eigenvalues --   -0.94139  -0.66246  -0.51331  -0.19338  -0.17704
 Alpha  occ. eigenvalues --   -0.12168  -0.11181  -0.04782   0.02277   0.05368
 Alpha  occ. eigenvalues --    0.10929   0.16983
 Alpha virt. eigenvalues --    0.48178   0.80616   0.91917   1.17615   1.18735
 Alpha virt. eigenvalues --    1.19777   1.21423   1.24079   1.24818   1.29134
 Alpha virt. eigenvalues --    1.30697   1.38831   1.38855   1.45003   1.46589

 Mulliken charges:
               1
     1  O   -0.210796
     2  O   -0.789204
     3  O   -0.789204
     4  O   -0.210796
 Sum of Mulliken charges =  -2.00000

 Dipole moment (field-independent basis, Debye):
    X=             -0.0000    Y=              0.0000    Z=             -0.0000  Tot=              0.0000
 Quadrupole moment (field-independent basis, Debye-Ang):
   XX=            -24.4238   YY=            -25.5804   ZZ=            -63.7031
   XY=              0.0000   XZ=              0.0000   YZ=              0.0000

 Normal termination of Gaussian 16 at Wed Jan  4 19:14:11 2023.
