 Gaussian 16, Revision A.03,
 Gaussian 16:  ES64L-G16RevA.03 25-Dec-2016

 ---------------------------------------------------------------
 #p ROCCSD(T)/cc-pVTZ Guess=Read SCF=(VeryTight,CDIIS,VShift=10)
 ---------------------------------------------------------------

 --------
 O2_O2_32
 --------
 Symbolic Z-matrix:
 Charge = -2 Multiplicity = 1

                         Standard orientation:
 ---------------------------------------------------------------------
 Center     Atomic      Atomic             Coordinates (Angstroms)
 Number     Number       Type             X           Y           Z
 ---------------------------------------------------------------------
      1          8           0        0.000000    0.000000    1.019113
      2          8           0        0.000000    0.000000    2.371493
      3          8           0        0.000000    0.000000   -2.371493
      4          8           0        0.000000    0.000000   -1.019113
 ---------------------------------------------------------------------

 SCF Done:  E(ROHF) =  -298.906723603     A.U. after    9 cycles
 E2 =    -0.1120285973D+01 EUMP2 =    -0.30002700957609D+03
 CCSD(T)
 CCSD(T)= -0.30004826623D+03

 Unable to determine electronic state:  an orbital has unidentified symmetry.
 Alpha  occ. eigenvalues --  -20.16881 -20.16878 -20.11149 -20.11149  -0.98089
 Alpha  occ. eigenvalues --   -0.96728  -0.62165  -0.56344  -0.17049  -0.16830
 Alpha  occ. eigenvalues --   -0.14924  -0.10624  -0.07609  -0.07084   0.04769
 Alpha  occ. eigenvalues --    0.07502   0.19119
 Alpha virt. eigenvalues --    0.42237   0.79311   0.87001   1.16802   1.17618
 Alpha virt. eigenvalues --    1.17944   1.19369   1.22010   1.22838   1.25671
 Alpha virt. eigenvalues --    1.27125   1.39112   1.39137   1.41581   1.43077

 Mulliken charges and spin densities:
               1          2
     1  O   -0.298315   0.000000
     2  O   -0.701685   0.000000
     3  O   -0.701685   0.000000
     4  O   -0.298315   0.000000
 Sum of Mulliken charges =  -2.00000   0.00000

 Dipole moment (field-independent basis, Debye):
    X=             -0.0000    Y=              0.0000    Z=             -0.0000  Tot=              0.0000
 Quadrupole moment (field-independent basis, Debye-Ang):
   XX=            -24.4927   YY=            -25.6907   ZZ=            -67.2326
   XY=              0.0000   XZ=              0.0000   YZ=              0.0000

 CCSD(T)/cc-pVTZ Guess=Read SCF=(VeryTight,CDIIS,VShift=10)\\O2_O2_32\\
 04\CCSD=-299.9608769\CCSD(T)=-300.0482662\RMSD=7.812e-09\PG=D*H [C*(O1
 Normal termination of Gaussian 16 at Sat Jan 14 17:57:28 2023.
