 Gaussian 16, Revision A.03,
 Gaussian 16:  ES64L-G16RevA.03 25-Dec-2016

 ---------------------------------------------------------------
 #p ROCCSD(T)/cc-pVTZ Guess=Read SCF=(VeryTight,CDIIS,VShift=10)
 ---------------------------------------------------------------

 --------
 O2_O2_83
 --------
 Symbolic Z-matrix:
 Charge = -2 Multiplicity = 1

                         Standard orientation:
 ---------------------------------------------------------------------
 Center     Atomic      Atomic             Coordinates (Angstroms)
 Number     Number       Type             X           Y           Z
 ---------------------------------------------------------------------
      1          8           0        0.000000    0.000000    1.380157
      2          8           0        0.000000    0.000000    2.732537
      3          8           0        0.000000    0.000000   -2.732537
      4          8           0        0.000000    0.000000   -1.380157
 ---------------------------------------------------------------------

 SCF Done:  E(ROHF) =  -298.906048285     A.U. after    9 cycles
 E2 =    -0.1190946834D+01 EUMP2 =    -0.30009699511945D+03
 CCSD(T)
 CCSD(T)= -0.30009672747D+03

 Unable to determine electronic state:  an orbital has unidentified symmetry.
 Alpha  occ. eigenvalues --  -20.18034 -20.18033 -20.14890 -20.14890  -0.99640
 Alpha  occ. eigenvalues --   -0.99434  -0.61907  -0.60748  -0.18162  -0.17802
 Alpha  occ. eigenvalues --   -0.16207  -0.13606  -0.11906  -0.10732   0.03333
 Alpha  occ. eigenvalues --    0.04062   0.20225
 Alpha virt. eigenvalues --    0.35858   0.75396   0.82407   1.15716   1.15814
 Alpha virt. eigenvalues --    1.16210   1.17526   1.18737   1.19357   1.20284
 Alpha virt. eigenvalues --    1.23536   1.24989   1.33544   1.35026   1.38270

 Mulliken charges and spin densities:
               1          2
     1  O   -0.376879   0.000000
     2  O   -0.623121   0.000000
     3  O   -0.623121   0.000000
     4  O   -0.376879   0.000000
 Sum of Mulliken charges =  -2.00000   0.00000

 Dipole moment (field-independent basis, Debye):
    X=             -0.0000    Y=              0.0000    Z=             -0.0000  Tot=              0.0000
 Quadrupole moment (field-independent basis, Debye-Ang):
   XX=            -24.3688   YY=            -25.6906   ZZ=            -78.2419
   XY=              0.0000   XZ=              0.0000   YZ=              0.0000

 CCSD(T)/cc-pVTZ Guess=Read SCF=(VeryTight,CDIIS,VShift=10)\\O2_O2_83\\
 833\CCSD=-299.9832965\CCSD(T)=-300.0967275\RMSD=2.987e-09\PG=D*H [C*(O
 Normal termination of Gaussian 16 at Sat Jan 14 18:59:52 2023.
