 Gaussian 16, Revision A.03,
 Gaussian 16:  ES64L-G16RevA.03 25-Dec-2016

 ---------------------------------------------------------------
 #p ROCCSD(T)/cc-pVTZ Guess=Read SCF=(VeryTight,CDIIS,VShift=10)
 ---------------------------------------------------------------

 --------
 O2_O2_79
 --------
 Symbolic Z-matrix:
 Charge = -2 Multiplicity = 1

                         Standard orientation:
 ---------------------------------------------------------------------
 Center     Atomic      Atomic             Coordinates (Angstroms)
 Number     Number       Type             X           Y           Z
 ---------------------------------------------------------------------
      1          8           0        0.000000    0.000000    1.351840
      2          8           0        0.000000    0.000000    2.704220
      3          8           0        0.000000    0.000000   -2.704220
      4          8           0        0.000000    0.000000   -1.351840
 ---------------------------------------------------------------------

 SCF Done:  E(ROHF) =  -298.906423259     A.U. after    9 cycles
 E2 =    -0.1185465130D+01 EUMP2 =    -0.30009188838963D+03
 CCSD(T)
 CCSD(T)= -0.30009409770D+03

 Unable to determine electronic state:  an orbital has unidentified symmetry.
 Alpha  occ. eigenvalues --  -20.17953 -20.17952 -20.14665 -20.14665  -0.99505
 Alpha  occ. eigenvalues --   -0.99268  -0.61823  -0.60513  -0.18037  -0.17627
 Alpha  occ. eigenvalues --   -0.16176  -0.13289  -0.11789  -0.10538   0.03452
 Alpha  occ. eigenvalues --    0.04264   0.20205
 Alpha virt. eigenvalues --    0.36233   0.75740   0.82698   1.15833   1.16188
 Alpha virt. eigenvalues --    1.16455   1.17541   1.19510   1.19545   1.20467
 Alpha virt. eigenvalues --    1.23574   1.25015   1.34182   1.35664   1.38360

 Mulliken charges and spin densities:
               1          2
     1  O   -0.372732   0.000000
     2  O   -0.627268   0.000000
     3  O   -0.627268   0.000000
     4  O   -0.372732   0.000000
 Sum of Mulliken charges =  -2.00000   0.00000

 Dipole moment (field-independent basis, Debye):
    X=             -0.0000    Y=              0.0000    Z=             -0.0000  Tot=              0.0000
 Quadrupole moment (field-independent basis, Debye-Ang):
   XX=            -24.3788   YY=            -25.6920   ZZ=            -77.2357
   XY=              0.0000   XZ=              0.0000   YZ=              0.0000

 CCSD(T)/cc-pVTZ Guess=Read SCF=(VeryTight,CDIIS,VShift=10)\\O2_O2_79\\
 048\CCSD=-299.9822559\CCSD(T)=-300.0940977\RMSD=3.191e-09\PG=D*H [C*(O
 Normal termination of Gaussian 16 at Sat Jan 14 18:55:12 2023.
