 Gaussian 16, Revision A.03,
 Gaussian 16:  ES64L-G16RevA.03 25-Dec-2016

 ---------------------------------------------------------------
 #p ROCCSD(T)/cc-pVTZ Guess=Read SCF=(VeryTight,CDIIS,VShift=10)
 ---------------------------------------------------------------

 --------
 O2_O2_77
 --------
 Symbolic Z-matrix:
 Charge = -2 Multiplicity = 1

                         Standard orientation:
 ---------------------------------------------------------------------
 Center     Atomic      Atomic             Coordinates (Angstroms)
 Number     Number       Type             X           Y           Z
 ---------------------------------------------------------------------
      1          8           0        0.000000    0.000000    1.337681
      2          8           0        0.000000    0.000000    2.690061
      3          8           0        0.000000    0.000000   -2.690061
      4          8           0        0.000000    0.000000   -1.337681
 ---------------------------------------------------------------------

 SCF Done:  E(ROHF) =  -298.906625900     A.U. after    9 cycles
 E2 =    -0.1182707522D+01 EUMP2 =    -0.30008933342202D+03
 CCSD(T)
 CCSD(T)= -0.30009274323D+03

 Unable to determine electronic state:  an orbital has unidentified symmetry.
 Alpha  occ. eigenvalues --  -20.17913 -20.17911 -20.14550 -20.14550  -0.99437
 Alpha  occ. eigenvalues --   -0.99183  -0.61784  -0.60391  -0.17974  -0.17538
 Alpha  occ. eigenvalues --   -0.16165  -0.13123  -0.11731  -0.10439   0.03512
 Alpha  occ. eigenvalues --    0.04368   0.20192
 Alpha virt. eigenvalues --    0.36426   0.75911   0.82846   1.15845   1.16179
 Alpha virt. eigenvalues --    1.16729   1.17552   1.19640   1.20037   1.20560
 Alpha virt. eigenvalues --    1.23599   1.25035   1.34505   1.35987   1.38404

 Mulliken charges and spin densities:
               1          2
     1  O   -0.370568   0.000000
     2  O   -0.629432   0.000000
     3  O   -0.629432   0.000000
     4  O   -0.370568   0.000000
 Sum of Mulliken charges =  -2.00000   0.00000

 Dipole moment (field-independent basis, Debye):
    X=             -0.0000    Y=             -0.0000    Z=              0.0000  Tot=              0.0000
 Quadrupole moment (field-independent basis, Debye-Ang):
   XX=            -24.3839   YY=            -25.6927   ZZ=            -76.7402
   XY=              0.0000   XZ=              0.0000   YZ=              0.0000

 CCSD(T)/cc-pVTZ Guess=Read SCF=(VeryTight,CDIIS,VShift=10)\\O2_O2_77\\
 705\CCSD=-299.9817254\CCSD(T)=-300.0927432\RMSD=3.298e-09\PG=D*H [C*(O
 Normal termination of Gaussian 16 at Sat Jan 14 18:52:50 2023.
