 Gaussian 16, Revision A.03,
 Gaussian 16:  ES64L-G16RevA.03 25-Dec-2016

 ---------------------------------------------------------------
 #p ROCCSD(T)/cc-pVTZ Guess=Read SCF=(VeryTight,CDIIS,VShift=10)
 ---------------------------------------------------------------

 --------
 O2_O2_58
 --------
 Symbolic Z-matrix:
 Charge = -2 Multiplicity = 1

                         Standard orientation:
 ---------------------------------------------------------------------
 Center     Atomic      Atomic             Coordinates (Angstroms)
 Number     Number       Type             X           Y           Z
 ---------------------------------------------------------------------
      1          8           0        0.000000    0.000000    1.203175
      2          8           0        0.000000    0.000000    2.555555
      3          8           0        0.000000    0.000000   -2.555555
      4          8           0        0.000000    0.000000   -1.203175
 ---------------------------------------------------------------------

 SCF Done:  E(ROHF) =  -298.908721696     A.U. after    9 cycles
 E2 =    -0.1156110261D+01 EUMP2 =    -0.30006483195697D+03
 CCSD(T)
 CCSD(T)= -0.30007815113D+03

 Unable to determine electronic state:  an orbital has unidentified symmetry.
 Alpha  occ. eigenvalues --  -20.17518 -20.17516 -20.13328 -20.13328  -0.98798
 Alpha  occ. eigenvalues --   -0.98295  -0.61560  -0.59039  -0.17400  -0.16597
 Alpha  occ. eigenvalues --   -0.16224  -0.11221  -0.11194  -0.09399   0.04071
 Alpha  occ. eigenvalues --    0.05477   0.19954
 Alpha virt. eigenvalues --    0.38500   0.77467   0.84366   1.16082   1.16323
 Alpha virt. eigenvalues --    1.17707   1.17884   1.20576   1.21465   1.24095
 Alpha virt. eigenvalues --    1.25493   1.28035   1.37619   1.38786   1.39101

 Mulliken charges and spin densities:
               1          2
     1  O   -0.346317   0.000000
     2  O   -0.653683   0.000000
     3  O   -0.653683   0.000000
     4  O   -0.346317   0.000000
 Sum of Mulliken charges =  -2.00000   0.00000

 Dipole moment (field-independent basis, Debye):
    X=             -0.0000    Y=              0.0000    Z=              0.0000  Tot=              0.0000
 Quadrupole moment (field-independent basis, Debye-Ang):
   XX=            -24.4358   YY=            -25.6986   ZZ=            -72.3068
   XY=              0.0000   XZ=              0.0000   YZ=              0.0000

 CCSD(T)/cc-pVTZ Guess=Read SCF=(VeryTight,CDIIS,VShift=10)\\O2_O2_58\\
 3\CCSD=-299.9759728\CCSD(T)=-300.0781511\RMSD=4.410e-09\PG=D*H [C*(O1O
 Normal termination of Gaussian 16 at Sat Jan 14 18:29:48 2023.
