 Gaussian 16, Revision A.03,
 Gaussian 16:  ES64L-G16RevA.03 25-Dec-2016

 ---------------------------------------------------------------
 #p ROCCSD(T)/cc-pVTZ Guess=Read SCF=(VeryTight,CDIIS,VShift=10)
 ---------------------------------------------------------------

 --------
 O2_O2_86
 --------
 Symbolic Z-matrix:
 Charge = -2 Multiplicity = 1

                         Standard orientation:
 ---------------------------------------------------------------------
 Center     Atomic      Atomic             Coordinates (Angstroms)
 Number     Number       Type             X           Y           Z
 ---------------------------------------------------------------------
      1          8           0        0.000000    0.000000    1.401395
      2          8           0        0.000000    0.000000    2.753775
      3          8           0        0.000000    0.000000   -2.753775
      4          8           0        0.000000    0.000000   -1.401395
 ---------------------------------------------------------------------

 SCF Done:  E(ROHF) =  -298.905796506     A.U. after    9 cycles
 E2 =    -0.1195026932D+01 EUMP2 =    -0.30010082343810D+03
 CCSD(T)
 CCSD(T)= -0.30009863581D+03

 Unable to determine electronic state:  an orbital has unidentified symmetry.
 Alpha  occ. eigenvalues --  -20.18095 -20.18094 -20.15054 -20.15054  -0.99740
 Alpha  occ. eigenvalues --   -0.99555  -0.61974  -0.60916  -0.18256  -0.17928
 Alpha  occ. eigenvalues --   -0.16237  -0.13832  -0.11993  -0.10873   0.03243
 Alpha  occ. eigenvalues --    0.03916   0.20236
 Alpha virt. eigenvalues --    0.35587   0.75138   0.82192   1.15034   1.15804
 Alpha virt. eigenvalues --    1.16231   1.17520   1.18365   1.19216   1.20147
 Alpha virt. eigenvalues --    1.23519   1.24980   1.33075   1.34557   1.38200

 Mulliken charges and spin densities:
               1          2
     1  O   -0.379841   0.000000
     2  O   -0.620159   0.000000
     3  O   -0.620159   0.000000
     4  O   -0.379841   0.000000
 Sum of Mulliken charges =  -2.00000   0.00000

 Dipole moment (field-independent basis, Debye):
    X=             -0.0000    Y=              0.0000    Z=              0.0000  Tot=              0.0000
 Quadrupole moment (field-independent basis, Debye-Ang):
   XX=            -24.3615   YY=            -25.6896   ZZ=            -79.0095
   XY=              0.0000   XZ=              0.0000   YZ=              0.0000

 CCSD(T)/cc-pVTZ Guess=Read SCF=(VeryTight,CDIIS,VShift=10)\\O2_O2_86\\
 12\CCSD=-299.9840631\CCSD(T)=-300.0986358\RMSD=2.845e-09\PG=D*H [C*(O1
 Normal termination of Gaussian 16 at Sat Jan 14 19:04:48 2023.
