 Gaussian 16, Revision A.03,
 Gaussian 16:  ES64L-G16RevA.03 25-Dec-2016

 -------------------------------------
 #p CCSD(T)/cc-pVTZ Guess=Read SCF=XQC
 -------------------------------------

 ---------
 O2_O2_189
 ---------
 Symbolic Z-matrix:
 Charge = -2 Multiplicity = 1

                         Standard orientation:
 ---------------------------------------------------------------------
 Center     Atomic      Atomic             Coordinates (Angstroms)
 Number     Number       Type             X           Y           Z
 ---------------------------------------------------------------------
      1          8           0        0.000000    0.000000    2.130562
      2          8           0        0.000000    0.000000    3.482942
      3          8           0        0.000000    0.000000   -3.482942
      4          8           0        0.000000    0.000000   -2.130562
 ---------------------------------------------------------------------

 SCF Done:  E(RHF) =  -298.909367449     A.U. after    8 cycles
 E2 =    -0.1318046822D+01 EUMP2 =    -0.30022741427016D+03
 CCSD(T)
 CCSD(T)= -0.30014441895D+03

 Unable to determine electronic state:  an orbital has unidentified symmetry.
 Alpha  occ. eigenvalues --  -20.20235 -20.20234 -20.18968 -20.18968  -1.02686
 Alpha  occ. eigenvalues --   -1.02676  -0.64686  -0.64608  -0.21125  -0.21115
 Alpha  occ. eigenvalues --   -0.18433  -0.18294  -0.14680  -0.14347   0.00435
 Alpha  occ. eigenvalues --    0.00462   0.19589
 Alpha virt. eigenvalues --    0.29566   0.72662   0.75379   1.11357   1.14386
 Alpha virt. eigenvalues --    1.15268   1.15414   1.16261   1.16400   1.16505
 Alpha virt. eigenvalues --    1.22420   1.23674   1.24190   1.25165   1.25673

 Mulliken charges:
               1
     1  O   -0.437121
     2  O   -0.562879
     3  O   -0.562879
     4  O   -0.437121
 Sum of Mulliken charges =  -2.00000

 Dipole moment (field-independent basis, Debye):
    X=             -0.0000    Y=             -0.0000    Z=             -0.0000  Tot=              0.0000
 Quadrupole moment (field-independent basis, Debye-Ang):
   XX=            -24.2419   YY=            -25.6661   ZZ=           -111.4176
   XY=              0.0000   XZ=              0.0000   YZ=              0.0000

 Normal termination of Gaussian 16 at Wed Jan  4 20:59:17 2023.
