 Gaussian 16, Revision A.03,
 Gaussian 16:  ES64L-G16RevA.03 25-Dec-2016

 -------------------------------------
 #p CCSD(T)/cc-pVTZ Guess=Read SCF=XQC
 -------------------------------------

 ---------
 O2_O2_291
 ---------
 Symbolic Z-matrix:
 Charge = -2 Multiplicity = 1

                         Standard orientation:
 ---------------------------------------------------------------------
 Center     Atomic      Atomic             Coordinates (Angstroms)
 Number     Number       Type             X           Y           Z
 ---------------------------------------------------------------------
      1          8           0        0.000000    0.000000    2.852649
      2          8           0        0.000000    0.000000    4.205029
      3          8           0        0.000000    0.000000   -4.205029
      4          8           0        0.000000    0.000000   -2.852649
 ---------------------------------------------------------------------

 SCF Done:  E(RHF) =  -298.918023523     A.U. after    8 cycles
 E2 =    -0.1423051085D+01 EUMP2 =    -0.30034107460724D+03
 CCSD(T)
 CCSD(T)= -0.30017030991D+03

 Unable to determine electronic state:  an orbital has unidentified symmetry.
 Alpha  occ. eigenvalues --  -20.21959 -20.21959 -20.21188 -20.21188  -1.04633
 Alpha  occ. eigenvalues --   -1.04631  -0.66658  -0.66634  -0.23069  -0.23068
 Alpha  occ. eigenvalues --   -0.20402  -0.20398  -0.16533  -0.16375  -0.01527
 Alpha  occ. eigenvalues --   -0.01527   0.18717
 Alpha virt. eigenvalues --    0.26446   0.71924   0.71985   1.11527   1.11603
 Alpha virt. eigenvalues --    1.13443   1.13444   1.14437   1.14439   1.16080
 Alpha virt. eigenvalues --    1.16158   1.21935   1.21939   1.23416   1.23420

 Mulliken charges:
               1
     1  O   -0.460370
     2  O   -0.539630
     3  O   -0.539630
     4  O   -0.460370
 Sum of Mulliken charges =  -2.00000

 Dipole moment (field-independent basis, Debye):
    X=             -0.0000    Y=              0.0000    Z=              0.0000  Tot=              0.0000
 Quadrupole moment (field-independent basis, Debye-Ang):
   XX=            -24.2281   YY=            -25.6576   ZZ=           -154.2877
   XY=              0.0000   XZ=              0.0000   YZ=              0.0000

 Normal termination of Gaussian 16 at Wed Jan  4 21:59:26 2023.
