 Gaussian 16, Revision A.03,
 Gaussian 16:  ES64L-G16RevA.03 25-Dec-2016

 -------------------------------------
 #p CCSD(T)/cc-pVTZ Guess=Read SCF=XQC
 -------------------------------------

 ---------
 O2_O2_168
 ---------
 Symbolic Z-matrix:
 Charge = -2 Multiplicity = 1

                         Standard orientation:
 ---------------------------------------------------------------------
 Center     Atomic      Atomic             Coordinates (Angstroms)
 Number     Number       Type             X           Y           Z
 ---------------------------------------------------------------------
      1          8           0        0.000000    0.000000    1.981897
      2          8           0        0.000000    0.000000    3.334277
      3          8           0        0.000000    0.000000   -3.334277
      4          8           0        0.000000    0.000000   -1.981897
 ---------------------------------------------------------------------

 SCF Done:  E(RHF) =  -298.907556788     A.U. after    8 cycles
 E2 =    -0.1295170101D+01 EUMP2 =    -0.30020272688839D+03
 CCSD(T)
 CCSD(T)= -0.30013730055D+03

 Unable to determine electronic state:  an orbital has unidentified symmetry.
 Alpha  occ. eigenvalues --  -20.19808 -20.19807 -20.18357 -20.18357  -1.02173
 Alpha  occ. eigenvalues --   -1.02157  -0.64170  -0.64051  -0.20615  -0.20594
 Alpha  occ. eigenvalues --   -0.17945  -0.17683  -0.14199  -0.13795   0.00946
 Alpha  occ. eigenvalues --    0.01002   0.19788
 Alpha virt. eigenvalues --    0.30448   0.72359   0.76658   1.10076   1.14947
 Alpha virt. eigenvalues --    1.15678   1.15996   1.16393   1.16677   1.16977
 Alpha virt. eigenvalues --    1.23912   1.25045   1.25411   1.26529   1.26948

 Mulliken charges:
               1
     1  O   -0.429787
     2  O   -0.570213
     3  O   -0.570213
     4  O   -0.429787
 Sum of Mulliken charges =  -2.00000

 Dipole moment (field-independent basis, Debye):
    X=             -0.0000    Y=              0.0000    Z=             -0.0000  Tot=              0.0000
 Quadrupole moment (field-independent basis, Debye-Ang):
   XX=            -24.2509   YY=            -25.6692   ZZ=           -103.8965
   XY=              0.0000   XZ=              0.0000   YZ=              0.0000

 Normal termination of Gaussian 16 at Wed Jan  4 20:46:51 2023.
