 Gaussian 16, Revision A.03,
 Gaussian 16:  ES64L-G16RevA.03 25-Dec-2016

 ---------------------------------------------------------------
 #p ROCCSD(T)/cc-pVTZ Guess=Read SCF=(VeryTight,CDIIS,VShift=10)
 ---------------------------------------------------------------

 --------
 O2_O2_51
 --------
 Symbolic Z-matrix:
 Charge = -2 Multiplicity = 1

                         Standard orientation:
 ---------------------------------------------------------------------
 Center     Atomic      Atomic             Coordinates (Angstroms)
 Number     Number       Type             X           Y           Z
 ---------------------------------------------------------------------
      1          8           0        0.000000    0.000000    1.153620
      2          8           0        0.000000    0.000000    2.506000
      3          8           0        0.000000    0.000000   -2.506000
      4          8           0        0.000000    0.000000   -1.153620
 ---------------------------------------------------------------------

 SCF Done:  E(ROHF) =  -298.909244903     A.U. after    9 cycles
 E2 =    -0.1146252442D+01 EUMP2 =    -0.30005549734550D+03
 CCSD(T)
 CCSD(T)= -0.30007166577D+03

 Unable to determine electronic state:  an orbital has unidentified symmetry.
 Alpha  occ. eigenvalues --  -20.17362 -20.17360 -20.12810 -20.12810  -0.98575
 Alpha  occ. eigenvalues --   -0.97921  -0.61581  -0.58430  -0.17208  -0.16346
 Alpha  occ. eigenvalues --   -0.16199  -0.11011  -0.10329  -0.08966   0.04270
 Alpha  occ. eigenvalues --    0.05953   0.19800
 Alpha virt. eigenvalues --    0.39389   0.77994   0.84994   1.16231   1.16530
 Alpha virt. eigenvalues --    1.17818   1.18157   1.20939   1.21815   1.24405
 Alpha virt. eigenvalues --    1.25802   1.31671   1.38742   1.38903   1.40095

 Mulliken charges and spin densities:
               1          2
     1  O   -0.335282   0.000000
     2  O   -0.664718   0.000000
     3  O   -0.664718   0.000000
     4  O   -0.335282   0.000000
 Sum of Mulliken charges =  -2.00000   0.00000

 Dipole moment (field-independent basis, Debye):
    X=             -0.0000    Y=             -0.0000    Z=             -0.0000  Tot=              0.0000
 Quadrupole moment (field-independent basis, Debye-Ang):
   XX=            -24.4547   YY=            -25.6995   ZZ=            -70.8133
   XY=              0.0000   XZ=              0.0000   YZ=              0.0000

 CCSD(T)/cc-pVTZ Guess=Read SCF=(VeryTight,CDIIS,VShift=10)\\O2_O2_51\\
 237\CCSD=-299.9732023\CCSD(T)=-300.0716658\RMSD=2.378e-09\PG=D*H [C*(O
 Normal termination of Gaussian 16 at Sat Jan 14 18:21:18 2023.
