 Gaussian 16, Revision A.03,
 Gaussian 16:  ES64L-G16RevA.03 25-Dec-2016

 ---------------------------------------------------------------
 #p ROCCSD(T)/cc-pVTZ Guess=Read SCF=(VeryTight,CDIIS,VShift=10)
 ---------------------------------------------------------------

 ---------
 O2_O2_170
 ---------
 Symbolic Z-matrix:
 Charge = -2 Multiplicity = 1

                         Standard orientation:
 ---------------------------------------------------------------------
 Center     Atomic      Atomic             Coordinates (Angstroms)
 Number     Number       Type             X           Y           Z
 ---------------------------------------------------------------------
      1          8           0        0.000000    0.000000    1.996055
      2          8           0        0.000000    0.000000    3.348435
      3          8           0        0.000000    0.000000   -3.348435
      4          8           0        0.000000    0.000000   -1.996055
 ---------------------------------------------------------------------

 SCF Done:  E(ROHF) =  -298.907720854     A.U. after    8 cycles
 E2 =    -0.1297382189D+01 EUMP2 =    -0.30020510304276D+03
 CCSD(T)
 CCSD(T)= -0.30013801408D+03

 Unable to determine electronic state:  an orbital has unidentified symmetry.
 Alpha  occ. eigenvalues --  -20.19849 -20.19849 -20.18418 -20.18418  -1.02224
 Alpha  occ. eigenvalues --   -1.02208  -0.64221  -0.64107  -0.20666  -0.20646
 Alpha  occ. eigenvalues --   -0.17993  -0.17745  -0.14246  -0.13850   0.00896
 Alpha  occ. eigenvalues --    0.00948   0.19769
 Alpha virt. eigenvalues --    0.30359   0.72390   0.76529   1.10213   1.14900
 Alpha virt. eigenvalues --    1.15640   1.15936   1.16394   1.16638   1.16918
 Alpha virt. eigenvalues --    1.23896   1.24951   1.25394   1.26428   1.26435

 Mulliken charges and spin densities:
               1          2
     1  O   -0.430543   0.000000
     2  O   -0.569457   0.000000
     3  O   -0.569457   0.000000
     4  O   -0.430543   0.000000
 Sum of Mulliken charges =  -2.00000   0.00000

 Dipole moment (field-independent basis, Debye):
    X=             -0.0000    Y=             -0.0000    Z=              0.0000  Tot=              0.0000
 Quadrupole moment (field-independent basis, Debye-Ang):
   XX=            -24.2498   YY=            -25.6689   ZZ=           -104.5933
   XY=              0.0000   XZ=              0.0000   YZ=              0.0000

 CCSD(T)/cc-pVTZ Guess=Read SCF=(VeryTight,CDIIS,VShift=10)\\O2_O2_170\
 CCSD=-300.0039992\CCSD(T)=-300.1380141\RMSD=4.202e-09\PG=D*H [C*(O1O1.
 Normal termination of Gaussian 16 at Sat Jan 14 20:51:43 2023.
