 Gaussian 16, Revision A.03,
 Gaussian 16:  ES64L-G16RevA.03 25-Dec-2016

 ---------------------------------------------------------------
 #p ROCCSD(T)/cc-pVTZ Guess=Read SCF=(VeryTight,CDIIS,VShift=10)
 ---------------------------------------------------------------

 --------
 O2_O2_75
 --------
 Symbolic Z-matrix:
 Charge = -2 Multiplicity = 1

                         Standard orientation:
 ---------------------------------------------------------------------
 Center     Atomic      Atomic             Coordinates (Angstroms)
 Number     Number       Type             X           Y           Z
 ---------------------------------------------------------------------
      1          8           0        0.000000    0.000000    1.323523
      2          8           0        0.000000    0.000000    2.675903
      3          8           0        0.000000    0.000000   -2.675903
      4          8           0        0.000000    0.000000   -1.323523
 ---------------------------------------------------------------------

 SCF Done:  E(ROHF) =  -298.906837288     A.U. after    9 cycles
 E2 =    -0.1179939512D+01 EUMP2 =    -0.30008677680000D+03
 CCSD(T)
 CCSD(T)= -0.30009136033D+03

 Unable to determine electronic state:  an orbital has unidentified symmetry.
 Alpha  occ. eigenvalues --  -20.17872 -20.17871 -20.14432 -20.14432  -0.99369
 Alpha  occ. eigenvalues --   -0.99097  -0.61747  -0.60266  -0.17912  -0.17447
 Alpha  occ. eigenvalues --   -0.16156  -0.12951  -0.11673  -0.10337   0.03572
 Alpha  occ. eigenvalues --    0.04474   0.20177
 Alpha virt. eigenvalues --    0.36624   0.76082   0.82997   1.15859   1.16174
 Alpha virt. eigenvalues --    1.16944   1.17566   1.19736   1.20653   1.20653
 Alpha virt. eigenvalues --    1.23630   1.25060   1.34830   1.36312   1.38448

 Mulliken charges and spin densities:
               1          2
     1  O   -0.368340   0.000000
     2  O   -0.631660   0.000000
     3  O   -0.631660   0.000000
     4  O   -0.368340   0.000000
 Sum of Mulliken charges =  -2.00000   0.00000

 Dipole moment (field-independent basis, Debye):
    X=             -0.0000    Y=             -0.0000    Z=              0.0000  Tot=              0.0000
 Quadrupole moment (field-independent basis, Debye-Ang):
   XX=            -24.3892   YY=            -25.6934   ZZ=            -76.2499
   XY=              0.0000   XZ=              0.0000   YZ=              0.0000

 CCSD(T)/cc-pVTZ Guess=Read SCF=(VeryTight,CDIIS,VShift=10)\\O2_O2_75\\
 403\CCSD=-299.9811863\CCSD(T)=-300.0913603\RMSD=3.407e-09\PG=D*H [C*(O
 Normal termination of Gaussian 16 at Sat Jan 14 18:50:24 2023.
