 Gaussian 16, Revision A.03,
 Gaussian 16:  ES64L-G16RevA.03 25-Dec-2016

 ---------------------------------------------------------------
 #p ROCCSD(T)/cc-pVTZ Guess=Read SCF=(VeryTight,CDIIS,VShift=10)
 ---------------------------------------------------------------

 ---------
 O2_O2_190
 ---------
 Symbolic Z-matrix:
 Charge = -2 Multiplicity = 1

                         Standard orientation:
 ---------------------------------------------------------------------
 Center     Atomic      Atomic             Coordinates (Angstroms)
 Number     Number       Type             X           Y           Z
 ---------------------------------------------------------------------
      1          8           0        0.000000    0.000000    2.137641
      2          8           0        0.000000    0.000000    3.490021
      3          8           0        0.000000    0.000000   -3.490021
      4          8           0        0.000000    0.000000   -2.137641
 ---------------------------------------------------------------------

 SCF Done:  E(ROHF) =  -298.909457198     A.U. after    8 cycles
 E2 =    -0.1319118770D+01 EUMP2 =    -0.30022857596758D+03
 CCSD(T)
 CCSD(T)= -0.30014473873D+03

 Unable to determine electronic state:  an orbital has unidentified symmetry.
 Alpha  occ. eigenvalues --  -20.20254 -20.20254 -20.18996 -20.18996  -1.02710
 Alpha  occ. eigenvalues --   -1.02700  -0.64709  -0.64633  -0.21148  -0.21139
 Alpha  occ. eigenvalues --   -0.18456  -0.18321  -0.14702  -0.14372   0.00412
 Alpha  occ. eigenvalues --    0.00437   0.19580
 Alpha virt. eigenvalues --    0.29527   0.72673   0.75322   1.11404   1.14356
 Alpha virt. eigenvalues --    1.15248   1.15388   1.16241   1.16375   1.16515
 Alpha virt. eigenvalues --    1.22253   1.23659   1.24155   1.25150   1.25639

 Mulliken charges and spin densities:
               1          2
     1  O   -0.437439   0.000000
     2  O   -0.562561   0.000000
     3  O   -0.562561   0.000000
     4  O   -0.437439   0.000000
 Sum of Mulliken charges =  -2.00000   0.00000

 Dipole moment (field-independent basis, Debye):
    X=             -0.0000    Y=              0.0000    Z=             -0.0000  Tot=              0.0000
 Quadrupole moment (field-independent basis, Debye-Ang):
   XX=            -24.2416   YY=            -25.6660   ZZ=           -111.7870
   XY=              0.0000   XZ=              0.0000   YZ=              0.0000

 CCSD(T)/cc-pVTZ Guess=Read SCF=(VeryTight,CDIIS,VShift=10)\\O2_O2_190\
 32\CCSD=-300.0082485\CCSD(T)=-300.1447387\RMSD=3.456e-09\PG=D*H [C*(O1
 Normal termination of Gaussian 16 at Sat Jan 14 21:19:34 2023.
