 Gaussian 16, Revision A.03,
 Gaussian 16:  ES64L-G16RevA.03 25-Dec-2016

 -------------------------------------
 #p CCSD(T)/cc-pVTZ Guess=Read SCF=XQC
 -------------------------------------

 ---------
 O2_O2_148
 ---------
 Symbolic Z-matrix:
 Charge = -2 Multiplicity = 1

                         Standard orientation:
 ---------------------------------------------------------------------
 Center     Atomic      Atomic             Coordinates (Angstroms)
 Number     Number       Type             X           Y           Z
 ---------------------------------------------------------------------
      1          8           0        0.000000    0.000000    1.840311
      2          8           0        0.000000    0.000000    3.192691
      3          8           0        0.000000    0.000000   -3.192691
      4          8           0        0.000000    0.000000   -1.840311
 ---------------------------------------------------------------------

 SCF Done:  E(RHF) =  -298.906078343     A.U. after    8 cycles
 E2 =    -0.1272576956D+01 EUMP2 =    -0.30017865529965D+03
 CCSD(T)
 CCSD(T)= -0.30012969380D+03

 Unable to determine electronic state:  an orbital has unidentified symmetry.
 Alpha  occ. eigenvalues --  -20.19389 -20.19388 -20.17706 -20.17706  -1.01643
 Alpha  occ. eigenvalues --   -1.01616  -0.63646  -0.63456  -0.20092  -0.20049
 Alpha  occ. eigenvalues --   -0.17469  -0.17006  -0.13708  -0.13210   0.01466
 Alpha  occ. eigenvalues --    0.01575   0.19966
 Alpha virt. eigenvalues --    0.31409   0.72141   0.77988   1.08849   1.15351
 Alpha virt. eigenvalues --    1.16027   1.16506   1.16644   1.17041   1.17618
 Alpha virt. eigenvalues --    1.23977   1.25486   1.26181   1.27665   1.33210

 Mulliken charges:
               1
     1  O   -0.421391
     2  O   -0.578609
     3  O   -0.578609
     4  O   -0.421391
 Sum of Mulliken charges =  -2.00000

 Dipole moment (field-independent basis, Debye):
    X=             -0.0000    Y=              0.0000    Z=              0.0000  Tot=              0.0000
 Quadrupole moment (field-independent basis, Debye-Ang):
   XX=            -24.2646   YY=            -25.6729   ZZ=            -97.1581
   XY=              0.0000   XZ=              0.0000   YZ=              0.0000

 Normal termination of Gaussian 16 at Wed Jan  4 20:35:34 2023.
