 Gaussian 16, Revision A.03,
 Gaussian 16:  ES64L-G16RevA.03 25-Dec-2016

 -------------------------------------
 #p CCSD(T)/cc-pVTZ Guess=Read SCF=XQC
 -------------------------------------

 ---------
 O2_O2_132
 ---------
 Symbolic Z-matrix:
 Charge = -2 Multiplicity = 1

                         Standard orientation:
 ---------------------------------------------------------------------
 Center     Atomic      Atomic             Coordinates (Angstroms)
 Number     Number       Type             X           Y           Z
 ---------------------------------------------------------------------
      1          8           0        0.000000    0.000000    1.727042
      2          8           0        0.000000    0.000000    3.079422
      3          8           0        0.000000    0.000000   -3.079422
      4          8           0        0.000000    0.000000   -1.727042
 ---------------------------------------------------------------------

 SCF Done:  E(RHF) =  -298.905211716     A.U. after    8 cycles
 E2 =    -0.1253766736D+01 EUMP2 =    -0.30015897845177D+03
 CCSD(T)
 CCSD(T)= -0.30012290210D+03

 Unable to determine electronic state:  an orbital has unidentified symmetry.
 Alpha  occ. eigenvalues --  -20.19050 -20.19049 -20.17126 -20.17126  -1.01189
 Alpha  occ. eigenvalues --   -1.01147  -0.63207  -0.62922  -0.19647  -0.19573
 Alpha  occ. eigenvalues --   -0.17092  -0.16377  -0.13291  -0.12693   0.01903
 Alpha  occ. eigenvalues --    0.02084   0.20092
 Alpha virt. eigenvalues --    0.32285   0.72293   0.79072   1.08566   1.15579
 Alpha virt. eigenvalues --    1.16238   1.16741   1.17234   1.17279   1.18200
 Alpha virt. eigenvalues --    1.23891   1.25406   1.27414   1.28899   1.36846

 Mulliken charges:
               1
     1  O   -0.413362
     2  O   -0.586638
     3  O   -0.586638
     4  O   -0.413362
 Sum of Mulliken charges =  -2.00000

 Dipole moment (field-independent basis, Debye):
    X=             -0.0000    Y=              0.0000    Z=             -0.0000  Tot=              0.0000
 Quadrupole moment (field-independent basis, Debye-Ang):
   XX=            -24.2806   YY=            -25.6763   ZZ=            -92.0725
   XY=              0.0000   XZ=              0.0000   YZ=              0.0000

 Normal termination of Gaussian 16 at Wed Jan  4 20:26:19 2023.
