 Gaussian 16, Revision A.03,
 Gaussian 16:  ES64L-G16RevA.03 25-Dec-2016

 ---------------------------------------------------------------
 #p ROCCSD(T)/cc-pVTZ Guess=Read SCF=(VeryTight,CDIIS,VShift=10)
 ---------------------------------------------------------------

 --------
 O2_O2_14
 --------
 Symbolic Z-matrix:
 Charge = -2 Multiplicity = 1

                         Standard orientation:
 ---------------------------------------------------------------------
 Center     Atomic      Atomic             Coordinates (Angstroms)
 Number     Number       Type             X           Y           Z
 ---------------------------------------------------------------------
      1          8           0        0.000000    0.000000    0.891685
      2          8           0        0.000000    0.000000    2.244066
      3          8           0        0.000000    0.000000   -2.244066
      4          8           0        0.000000    0.000000   -0.891685
 ---------------------------------------------------------------------

 SCF Done:  E(ROHF) =  -298.887775865     A.U. after   10 cycles
 E2 =    -0.1099509028D+01 EUMP2 =    -0.29998728489344D+03
 CCSD(T)
 CCSD(T)= -0.30000922425D+03

 Unable to determine electronic state:  an orbital has unidentified symmetry.
 Alpha  occ. eigenvalues --  -20.16348 -20.16343 -20.09072 -20.09072  -0.98142
 Alpha  occ. eigenvalues --   -0.95256  -0.64031  -0.53552  -0.18309  -0.16980
 Alpha  occ. eigenvalues --   -0.13355  -0.10648  -0.05991  -0.02193   0.05160
 Alpha  occ. eigenvalues --    0.09442   0.17978
 Alpha virt. eigenvalues --    0.45669   0.80321   0.89643   1.17736   1.17918
 Alpha virt. eigenvalues --    1.19066   1.20801   1.23210   1.23982   1.27590
 Alpha virt. eigenvalues --    1.29154   1.39056   1.39419   1.43868   1.45406

 Mulliken charges and spin densities:
               1          2
     1  O   -0.250838   0.000000
     2  O   -0.749162   0.000000
     3  O   -0.749162   0.000000
     4  O   -0.250838   0.000000
 Sum of Mulliken charges =  -2.00000   0.00000

 Dipole moment (field-independent basis, Debye):
    X=             -0.0000    Y=              0.0000    Z=             -0.0000  Tot=              0.0000
 Quadrupole moment (field-independent basis, Debye-Ang):
   XX=            -24.4798   YY=            -25.6449   ZZ=            -64.6783
   XY=              0.0000   XZ=              0.0000   YZ=              0.0000

 CCSD(T)/cc-pVTZ Guess=Read SCF=(VeryTight,CDIIS,VShift=10)\\O2_O2_14\\
 93\CCSD=-299.9326105\CCSD(T)=-300.0092242\RMSD=2.876e-09\PG=D*H [C*(O1
 Normal termination of Gaussian 16 at Sat Jan 14 17:36:19 2023.
