 Gaussian 16, Revision A.03,
 Gaussian 16:  ES64L-G16RevA.03 25-Dec-2016

 ---------------------------------------------------------------
 #p ROCCSD(T)/cc-pVTZ Guess=Read SCF=(VeryTight,CDIIS,VShift=10)
 ---------------------------------------------------------------

 ---------
 O2_O2_146
 ---------
 Symbolic Z-matrix:
 Charge = -2 Multiplicity = 1

                         Standard orientation:
 ---------------------------------------------------------------------
 Center     Atomic      Atomic             Coordinates (Angstroms)
 Number     Number       Type             X           Y           Z
 ---------------------------------------------------------------------
      1          8           0        0.000000    0.000000    1.826152
      2          8           0        0.000000    0.000000    3.178532
      3          8           0        0.000000    0.000000   -3.178532
      4          8           0        0.000000    0.000000   -1.826152
 ---------------------------------------------------------------------

 SCF Done:  E(ROHF) =  -298.905951370     A.U. after    8 cycles
 E2 =    -0.1270264853D+01 EUMP2 =    -0.30017621622275D+03
 CCSD(T)
 CCSD(T)= -0.30012888196D+03

 Unable to determine electronic state:  an orbital has unidentified symmetry.
 Alpha  occ. eigenvalues --  -20.19346 -20.19346 -20.17636 -20.17636  -1.01588
 Alpha  occ. eigenvalues --   -1.01559  -0.63591  -0.63393  -0.20038  -0.19991
 Alpha  occ. eigenvalues --   -0.17421  -0.16933  -0.13657  -0.13148   0.01519
 Alpha  occ. eigenvalues --    0.01636   0.19983
 Alpha virt. eigenvalues --    0.31513   0.72138   0.78123   1.08766   1.15384
 Alpha virt. eigenvalues --    1.16058   1.16529   1.16714   1.17074   1.17687
 Alpha virt. eigenvalues --    1.23973   1.25483   1.26317   1.27802   1.33913

 Mulliken charges and spin densities:
               1          2
     1  O   -0.420458   0.000000
     2  O   -0.579542   0.000000
     3  O   -0.579542   0.000000
     4  O   -0.420458   0.000000
 Sum of Mulliken charges =  -2.00000   0.00000

 Dipole moment (field-independent basis, Debye):
    X=             -0.0000    Y=             -0.0000    Z=             -0.0000  Tot=              0.0000
 Quadrupole moment (field-independent basis, Debye-Ang):
   XX=            -24.2663   YY=            -25.6733   ZZ=            -96.5075
   XY=              0.0000   XZ=              0.0000   YZ=              0.0000

 CCSD(T)/cc-pVTZ Guess=Read SCF=(VeryTight,CDIIS,VShift=10)\\O2_O2_146\
 6909\CCSD=-299.9985927\CCSD(T)=-300.128882\RMSD=8.582e-09\PG=D*H [C*(O
 Normal termination of Gaussian 16 at Sat Jan 14 20:20:19 2023.
