 Gaussian 16, Revision A.03,
 Gaussian 16:  ES64L-G16RevA.03 25-Dec-2016

 ---------------------------------------------------------------
 #p ROCCSD(T)/cc-pVTZ Guess=Read SCF=(VeryTight,CDIIS,VShift=10)
 ---------------------------------------------------------------

 ---------
 O2_O2_188
 ---------
 Symbolic Z-matrix:
 Charge = -2 Multiplicity = 1

                         Standard orientation:
 ---------------------------------------------------------------------
 Center     Atomic      Atomic             Coordinates (Angstroms)
 Number     Number       Type             X           Y           Z
 ---------------------------------------------------------------------
      1          8           0        0.000000    0.000000    2.123482
      2          8           0        0.000000    0.000000    3.475862
      3          8           0        0.000000    0.000000   -3.475862
      4          8           0        0.000000    0.000000   -2.123482
 ---------------------------------------------------------------------

 SCF Done:  E(ROHF) =  -298.909277908     A.U. after    8 cycles
 E2 =    -0.1316973455D+01 EUMP2 =    -0.30022625136273D+03
 CCSD(T)
 CCSD(T)= -0.30014409778D+03

 Unable to determine electronic state:  an orbital has unidentified symmetry.
 Alpha  occ. eigenvalues --  -20.20215 -20.20214 -20.18941 -20.18940  -1.02663
 Alpha  occ. eigenvalues --   -1.02653  -0.64662  -0.64582  -0.21102  -0.21091
 Alpha  occ. eigenvalues --   -0.18411  -0.18267  -0.14658  -0.14322   0.00459
 Alpha  occ. eigenvalues --    0.00486   0.19599
 Alpha virt. eigenvalues --    0.29605   0.72650   0.75435   1.11308   1.14416
 Alpha virt. eigenvalues --    1.15288   1.15440   1.16281   1.16425   1.16496
 Alpha virt. eigenvalues --    1.22592   1.23688   1.24225   1.25179   1.25708

 Mulliken charges and spin densities:
               1          2
     1  O   -0.436800   0.000000
     2  O   -0.563200   0.000000
     3  O   -0.563200   0.000000
     4  O   -0.436800   0.000000
 Sum of Mulliken charges =  -2.00000   0.00000

 Dipole moment (field-independent basis, Debye):
    X=             -0.0000    Y=              0.0000    Z=             -0.0000  Tot=              0.0000
 Quadrupole moment (field-independent basis, Debye-Ang):
   XX=            -24.2422   YY=            -25.6662   ZZ=           -111.0493
   XY=              0.0000   XZ=              0.0000   YZ=              0.0000

 CCSD(T)/cc-pVTZ Guess=Read SCF=(VeryTight,CDIIS,VShift=10)\\O2_O2_188\
 0867\CCSD=-300.0078349\CCSD(T)=-300.1440978\RMSD=3.488e-09\PG=D*H [C*(
 Normal termination of Gaussian 16 at Sat Jan 14 21:16:49 2023.
