 Gaussian 16, Revision A.03,
 Gaussian 16:  ES64L-G16RevA.03 25-Dec-2016

 -------------------------------------
 #p CCSD(T)/cc-pVTZ Guess=Read SCF=XQC
 -------------------------------------

 ---------
 O2_O2_157
 ---------
 Symbolic Z-matrix:
 Charge = -2 Multiplicity = 1

                         Standard orientation:
 ---------------------------------------------------------------------
 Center     Atomic      Atomic             Coordinates (Angstroms)
 Number     Number       Type             X           Y           Z
 ---------------------------------------------------------------------
      1          8           0        0.000000    0.000000    1.904024
      2          8           0        0.000000    0.000000    3.256404
      3          8           0        0.000000    0.000000   -3.256404
      4          8           0        0.000000    0.000000   -1.904024
 ---------------------------------------------------------------------

 SCF Done:  E(RHF) =  -298.906701782     A.U. after    8 cycles
 E2 =    -0.1282856735D+01 EUMP2 =    -0.30018955851689D+03
 CCSD(T)
 CCSD(T)= -0.30013322776D+03

 Unable to determine electronic state:  an orbital has unidentified symmetry.
 Alpha  occ. eigenvalues --  -20.19578 -20.19578 -20.18008 -20.18008  -1.01886
 Alpha  occ. eigenvalues --   -1.01865  -0.63885  -0.63733  -0.20332  -0.20300
 Alpha  occ. eigenvalues --   -0.17684  -0.17324  -0.13933  -0.13481   0.01228
 Alpha  occ. eigenvalues --    0.01309   0.19888
 Alpha virt. eigenvalues --    0.30960   0.72206   0.77382   1.09338   1.15186
 Alpha virt. eigenvalues --    1.15878   1.16340   1.16428   1.16884   1.17317
 Alpha virt. eigenvalues --    1.23971   1.25476   1.25622   1.27106   1.30166

 Mulliken charges:
               1
     1  O   -0.425368
     2  O   -0.574632
     3  O   -0.574632
     4  O   -0.425368
 Sum of Mulliken charges =  -2.00000

 Dipole moment (field-independent basis, Debye):
    X=             -0.0000    Y=             -0.0000    Z=              0.0000  Tot=              0.0000
 Quadrupole moment (field-independent basis, Debye-Ang):
   XX=            -24.2577   YY=            -25.6712   ZZ=           -100.1385
   XY=              0.0000   XZ=              0.0000   YZ=              0.0000

 Normal termination of Gaussian 16 at Wed Jan  4 20:40:39 2023.
