 Gaussian 16, Revision A.03,
 Gaussian 16:  ES64L-G16RevA.03 25-Dec-2016

 -------------------------------------
 #p CCSD(T)/cc-pVTZ Guess=Read SCF=XQC
 -------------------------------------

 ---------
 O2_O2_249
 ---------
 Symbolic Z-matrix:
 Charge = -2 Multiplicity = 1

                         Standard orientation:
 ---------------------------------------------------------------------
 Center     Atomic      Atomic             Coordinates (Angstroms)
 Number     Number       Type             X           Y           Z
 ---------------------------------------------------------------------
      1          8           0        0.000000    0.000000    2.555319
      2          8           0        0.000000    0.000000    3.907699
      3          8           0        0.000000    0.000000   -3.907699
      4          8           0        0.000000    0.000000   -2.555319
 ---------------------------------------------------------------------

 SCF Done:  E(RHF) =  -298.914717775     A.U. after    8 cycles
 E2 =    -0.1380535629D+01 EUMP2 =    -0.30029525340358D+03
 CCSD(T)
 CCSD(T)= -0.30016107553D+03

 Unable to determine electronic state:  an orbital has unidentified symmetry.
 Alpha  occ. eigenvalues --  -20.21325 -20.21325 -20.20400 -20.20400  -1.03931
 Alpha  occ. eigenvalues --   -1.03927  -0.65945  -0.65912  -0.22366  -0.22365
 Alpha  occ. eigenvalues --   -0.19680  -0.19662  -0.15859  -0.15651  -0.00817
 Alpha  occ. eigenvalues --   -0.00815   0.19045
 Alpha virt. eigenvalues --    0.27547   0.72526   0.72912   1.12055   1.12505
 Alpha virt. eigenvalues --    1.14125   1.14135   1.15117   1.15127   1.16668
 Alpha virt. eigenvalues --    1.17266   1.22634   1.22669   1.24116   1.24151

 Mulliken charges:
               1
     1  O   -0.452663
     2  O   -0.547337
     3  O   -0.547337
     4  O   -0.452663
 Sum of Mulliken charges =  -2.00000

 Dipole moment (field-independent basis, Debye):
    X=             -0.0000    Y=              0.0000    Z=             -0.0000  Tot=              0.0000
 Quadrupole moment (field-independent basis, Debye-Ang):
   XX=            -24.2311   YY=            -25.6601   ZZ=           -135.3687
   XY=              0.0000   XZ=              0.0000   YZ=              0.0000

 Normal termination of Gaussian 16 at Wed Jan  4 21:34:26 2023.
