 Gaussian 16, Revision A.03,
 Gaussian 16:  ES64L-G16RevA.03 25-Dec-2016

 ---------------------------------------------------------------
 #p ROCCSD(T)/cc-pVTZ Guess=Read SCF=(VeryTight,CDIIS,VShift=10)
 ---------------------------------------------------------------

 ---------
 O2_O2_268
 ---------
 Symbolic Z-matrix:
 Charge = -2 Multiplicity = 1

                         Standard orientation:
 ---------------------------------------------------------------------
 Center     Atomic      Atomic             Coordinates (Angstroms)
 Number     Number       Type             X           Y           Z
 ---------------------------------------------------------------------
      1          8           0        0.000000    0.000000    2.689826
      2          8           0        0.000000    0.000000    4.042206
      3          8           0        0.000000    0.000000   -4.042206
      4          8           0        0.000000    0.000000   -2.689826
 ---------------------------------------------------------------------

 SCF Done:  E(ROHF) =  -298.916271024     A.U. after    8 cycles
 E2 =    -0.1399839700D+01 EUMP2 =    -0.30031611072307D+03
 CCSD(T)
 CCSD(T)= -0.30016545831D+03

 Unable to determine electronic state:  an orbital has unidentified symmetry.
 Alpha  occ. eigenvalues --  -20.21624 -20.21624 -20.20775 -20.20775  -1.04263
 Alpha  occ. eigenvalues --   -1.04260  -0.66283  -0.66255  -0.22699  -0.22699
 Alpha  occ. eigenvalues --   -0.20022  -0.20012  -0.16177  -0.15995  -0.01153
 Alpha  occ. eigenvalues --   -0.01152   0.18891
 Alpha virt. eigenvalues --    0.27023   0.72268   0.72443   1.11841   1.12051
 Alpha virt. eigenvalues --    1.13803   1.13807   1.14796   1.14801   1.16433
 Alpha virt. eigenvalues --    1.16679   1.22306   1.22319   1.23787   1.23801

 Mulliken charges and spin densities:
               1          2
     1  O   -0.456403  -0.000000
     2  O   -0.543597  -0.000000
     3  O   -0.543597  -0.000000
     4  O   -0.456403  -0.000000
 Sum of Mulliken charges =  -2.00000  -0.00000

 Dipole moment (field-independent basis, Debye):
    X=             -0.0000    Y=              0.0000    Z=              0.0000  Tot=              0.0000
 Quadrupole moment (field-independent basis, Debye-Ang):
   XX=            -24.2295   YY=            -25.6589   ZZ=           -143.7086
   XY=              0.0000   XZ=              0.0000   YZ=              0.0000

 CCSD(T)/cc-pVTZ Guess=Read SCF=(VeryTight,CDIIS,VShift=10)\\O2_O2_268\
 55\CCSD=-300.0222538\CCSD(T)=-300.1654583\RMSD=3.437e-09\PG=D*H [C*(O1
 Normal termination of Gaussian 16 at Sat Jan 14 23:04:51 2023.
