 Gaussian 16, Revision A.03,
 Gaussian 16:  ES64L-G16RevA.03 25-Dec-2016

 -------------------------------------
 #p CCSD(T)/cc-pVTZ Guess=Read SCF=XQC
 -------------------------------------

 ---------
 O2_O2_115
 ---------
 Symbolic Z-matrix:
 Charge = -2 Multiplicity = 1

                         Standard orientation:
 ---------------------------------------------------------------------
 Center     Atomic      Atomic             Coordinates (Angstroms)
 Number     Number       Type             X           Y           Z
 ---------------------------------------------------------------------
      1          8           0        0.000000    0.000000    1.606694
      2          8           0        0.000000    0.000000    2.959074
      3          8           0        0.000000    0.000000   -2.959074
      4          8           0        0.000000    0.000000   -1.606694
 ---------------------------------------------------------------------

 SCF Done:  E(RHF) =  -298.904780969     A.U. after    9 cycles
 E2 =    -0.1232909008D+01 EUMP2 =    -0.30013768997785D+03
 CCSD(T)
 CCSD(T)= -0.30011485922D+03

 Unable to determine electronic state:  an orbital has unidentified symmetry.
 Alpha  occ. eigenvalues --  -20.18691 -20.18690 -20.16441 -20.16441  -1.00678
 Alpha  occ. eigenvalues --   -1.00606  -0.62732  -0.62280  -0.19149  -0.19020
 Alpha  occ. eigenvalues --   -0.16716  -0.15593  -0.12826  -0.12086   0.02387
 Alpha  occ. eigenvalues --    0.02687   0.20196
 Alpha virt. eigenvalues --    0.33348   0.72969   0.80215   1.09549   1.15723
 Alpha virt. eigenvalues --    1.16349   1.17110   1.17446   1.17924   1.18880
 Alpha virt. eigenvalues --    1.23703   1.25215   1.29128   1.30612   1.37463

 Mulliken charges:
               1
     1  O   -0.403138
     2  O   -0.596862
     3  O   -0.596862
     4  O   -0.403138
 Sum of Mulliken charges =  -2.00000

 Dipole moment (field-independent basis, Debye):
    X=             -0.0000    Y=             -0.0000    Z=              0.0000  Tot=              0.0000
 Quadrupole moment (field-independent basis, Debye-Ang):
   XX=            -24.3039   YY=            -25.6806   ZZ=            -86.9713
   XY=              0.0000   XZ=              0.0000   YZ=              0.0000

 2682\MP4DQ=-299.907159\MP4SDQ=-299.9357789\CCSD=-299.99122\CCSD(T)=-30
 Normal termination of Gaussian 16 at Wed Jan  4 20:16:50 2023.
