 Gaussian 16, Revision A.03,
 Gaussian 16:  ES64L-G16RevA.03 25-Dec-2016

 ---------------------------------------------------------------
 #p ROCCSD(T)/cc-pVTZ Guess=Read SCF=(VeryTight,CDIIS,VShift=10)
 ---------------------------------------------------------------

 ---------
 O2_O2_141
 ---------
 Symbolic Z-matrix:
 Charge = -2 Multiplicity = 1

                         Standard orientation:
 ---------------------------------------------------------------------
 Center     Atomic      Atomic             Coordinates (Angstroms)
 Number     Number       Type             X           Y           Z
 ---------------------------------------------------------------------
      1          8           0        0.000000    0.000000    1.790756
      2          8           0        0.000000    0.000000    3.143136
      3          8           0        0.000000    0.000000   -3.143136
      4          8           0        0.000000    0.000000   -1.790756
 ---------------------------------------------------------------------

 SCF Done:  E(ROHF) =  -298.905655338     A.U. after    8 cycles
 E2 =    -0.1264437330D+01 EUMP2 =    -0.30017009266815D+03
 CCSD(T)
 CCSD(T)= -0.30012680725D+03

 Unable to determine electronic state:  an orbital has unidentified symmetry.
 Alpha  occ. eigenvalues --  -20.19240 -20.19240 -20.17459 -20.17459  -1.01448
 Alpha  occ. eigenvalues --   -1.01415  -0.63455  -0.63230  -0.19900  -0.19845
 Alpha  occ. eigenvalues --   -0.17302  -0.16742  -0.13528  -0.12990   0.01655
 Alpha  occ. eigenvalues --    0.01792   0.20024
 Alpha virt. eigenvalues --    0.31779   0.72157   0.78462   1.08611   1.15462
 Alpha virt. eigenvalues --    1.16129   1.16594   1.16894   1.17153   1.17865
 Alpha virt. eigenvalues --    1.23954   1.25466   1.26679   1.28164   1.35550

 Mulliken charges and spin densities:
               1          2
     1  O   -0.418042  -0.000000
     2  O   -0.581958   0.000000
     3  O   -0.581958   0.000000
     4  O   -0.418042   0.000000
 Sum of Mulliken charges =  -2.00000   0.00000

 Dipole moment (field-independent basis, Debye):
    X=             -0.0000    Y=             -0.0000    Z=              0.0000  Tot=              0.0000
 Quadrupole moment (field-independent basis, Debye-Ang):
   XX=            -24.2710   YY=            -25.6743   ZZ=            -94.8995
   XY=              0.0000   XZ=              0.0000   YZ=              0.0000

 CCSD(T)/cc-pVTZ Guess=Read SCF=(VeryTight,CDIIS,VShift=10)\\O2_O2_141\
 34\CCSD=-299.997429\CCSD(T)=-300.1268072\RMSD=9.308e-09\PG=D*H [C*(O1O
 Normal termination of Gaussian 16 at Sat Jan 14 20:13:42 2023.
