 Gaussian 16, Revision A.03,
 Gaussian 16:  ES64L-G16RevA.03 25-Dec-2016

 -------------------------------------
 #p CCSD(T)/cc-pVTZ Guess=Read SCF=XQC
 -------------------------------------

 -------
 O2_O2_1
 -------
 Symbolic Z-matrix:
 Charge = -2 Multiplicity = 1

                         Standard orientation:
 ---------------------------------------------------------------------
 Center     Atomic      Atomic             Coordinates (Angstroms)
 Number     Number       Type             X           Y           Z
 ---------------------------------------------------------------------
      1          8           0        0.000000    0.000000    0.799655
      2          8           0        0.000000    0.000000    2.152035
      3          8           0        0.000000    0.000000   -2.152035
      4          8           0        0.000000    0.000000   -0.799655
 ---------------------------------------------------------------------

 SCF Done:  E(RHF) =  -298.847562810     A.U. after   10 cycles
 E2 =    -0.1090899086D+01 EUMP2 =    -0.29993846189617D+03
 CCSD(T)
 CCSD(T)= -0.29995770368D+03

 Unable to determine electronic state:  an orbital has unidentified symmetry.
 Alpha  occ. eigenvalues --  -20.16075 -20.16065 -20.07097 -20.07097  -0.99208
 Alpha  occ. eigenvalues --   -0.93917  -0.66758  -0.50881  -0.19540  -0.17929
 Alpha  occ. eigenvalues --   -0.11932  -0.11359  -0.04540   0.03257   0.05407
 Alpha  occ. eigenvalues --    0.11228   0.16780
 Alpha virt. eigenvalues --    0.48669   0.80619   0.92409   1.17512   1.18973
 Alpha virt. eigenvalues --    1.19865   1.21489   1.24250   1.24984   1.29439
 Alpha virt. eigenvalues --    1.30987   1.38675   1.38812   1.45184   1.46780

 Mulliken charges:
               1
     1  O   -0.202218
     2  O   -0.797782
     3  O   -0.797782
     4  O   -0.202218
 Sum of Mulliken charges =  -2.00000

 Dipole moment (field-independent basis, Debye):
    X=             -0.0000    Y=              0.0000    Z=             -0.0000  Tot=              0.0000
 Quadrupole moment (field-independent basis, Debye-Ang):
   XX=            -24.4081   YY=            -25.5644   ZZ=            -63.5896
   XY=              0.0000   XZ=              0.0000   YZ=              0.0000

 92\MP4DQ=-299.871073\MP4SDQ=-299.8982866\CCSD=-299.8875782\CCSD(T)=-29
 Normal termination of Gaussian 16 at Wed Jan  4 19:13:03 2023.
