 Gaussian 16, Revision A.03,
 Gaussian 16:  ES64L-G16RevA.03 25-Dec-2016

 -------------------------------------
 #p CCSD(T)/cc-pVTZ Guess=Read SCF=XQC
 -------------------------------------

 ---------
 O2_O2_232
 ---------
 Symbolic Z-matrix:
 Charge = -2 Multiplicity = 1

                         Standard orientation:
 ---------------------------------------------------------------------
 Center     Atomic      Atomic             Coordinates (Angstroms)
 Number     Number       Type             X           Y           Z
 ---------------------------------------------------------------------
      1          8           0        0.000000    0.000000    2.434971
      2          8           0        0.000000    0.000000    3.787351
      3          8           0        0.000000    0.000000   -3.787351
      4          8           0        0.000000    0.000000   -2.434971
 ---------------------------------------------------------------------

 SCF Done:  E(RHF) =  -298.913251876     A.U. after    8 cycles
 E2 =    -0.1363120887D+01 EUMP2 =    -0.30027637276248D+03
 CCSD(T)
 CCSD(T)= -0.30015682625D+03

 Unable to determine electronic state:  an orbital has unidentified symmetry.
 Alpha  occ. eigenvalues --  -20.21038 -20.21038 -20.20035 -20.20035  -1.03609
 Alpha  occ. eigenvalues --   -1.03605  -0.65620  -0.65579  -0.22045  -0.22044
 Alpha  occ. eigenvalues --   -0.19353  -0.19320  -0.15552  -0.15317  -0.00493
 Alpha  occ. eigenvalues --   -0.00488   0.19191
 Alpha virt. eigenvalues --    0.28058   0.72701   0.73434   1.12158   1.12994
 Alpha virt. eigenvalues --    1.14431   1.14454   1.15422   1.15446   1.16779
 Alpha virt. eigenvalues --    1.18027   1.22939   1.23020   1.24423   1.24502

 Mulliken charges:
               1
     1  O   -0.448897
     2  O   -0.551103
     3  O   -0.551103
     4  O   -0.448897
 Sum of Mulliken charges =  -2.00000

 Dipole moment (field-independent basis, Debye):
    X=             -0.0000    Y=              0.0000    Z=             -0.0000  Tot=              0.0000
 Quadrupole moment (field-independent basis, Debye-Ang):
   XX=            -24.2329   YY=            -25.6615   ZZ=           -128.2141
   XY=              0.0000   XZ=              0.0000   YZ=              0.0000

 Normal termination of Gaussian 16 at Wed Jan  4 21:24:15 2023.
