 Gaussian 16, Revision A.03,
 Gaussian 16:  ES64L-G16RevA.03 25-Dec-2016

 -------------------------------------
 #p CCSD(T)/cc-pVTZ Guess=Read SCF=XQC
 -------------------------------------

 ---------
 O2_O2_118
 ---------
 Symbolic Z-matrix:
 Charge = -2 Multiplicity = 1

                         Standard orientation:
 ---------------------------------------------------------------------
 Center     Atomic      Atomic             Coordinates (Angstroms)
 Number     Number       Type             X           Y           Z
 ---------------------------------------------------------------------
      1          8           0        0.000000    0.000000    1.627932
      2          8           0        0.000000    0.000000    2.980312
      3          8           0        0.000000    0.000000   -2.980312
      4          8           0        0.000000    0.000000   -1.627932
 ---------------------------------------------------------------------

 SCF Done:  E(RHF) =  -298.904811118     A.U. after    9 cycles
 E2 =    -0.1236660430D+01 EUMP2 =    -0.30014147154729D+03
 CCSD(T)
 CCSD(T)= -0.30011634718D+03

 Unable to determine electronic state:  an orbital has unidentified symmetry.
 Alpha  occ. eigenvalues --  -20.18754 -20.18753 -20.16568 -20.16568  -1.00770
 Alpha  occ. eigenvalues --   -1.00705  -0.62816  -0.62400  -0.19239  -0.19122
 Alpha  occ. eigenvalues --   -0.16779  -0.15742  -0.12909  -0.12198   0.02300
 Alpha  occ. eigenvalues --    0.02575   0.20181
 Alpha virt. eigenvalues --    0.33149   0.72810   0.80014   1.09260   1.15705
 Alpha virt. eigenvalues --    1.16340   1.17036   1.17424   1.17798   1.18756
 Alpha virt. eigenvalues --    1.23740   1.25253   1.28793   1.30277   1.37376

 Mulliken charges:
               1
     1  O   -0.405093
     2  O   -0.594907
     3  O   -0.594907
     4  O   -0.405093
 Sum of Mulliken charges =  -2.00000

 Dipole moment (field-independent basis, Debye):
    X=             -0.0000    Y=              0.0000    Z=             -0.0000  Tot=              0.0000
 Quadrupole moment (field-independent basis, Debye-Ang):
   XX=            -24.2993   YY=            -25.6798   ZZ=            -87.8487
   XY=              0.0000   XZ=              0.0000   YZ=              0.0000

 Normal termination of Gaussian 16 at Wed Jan  4 20:18:29 2023.
