 Gaussian 16, Revision A.03,
 Gaussian 16:  ES64L-G16RevA.03 25-Dec-2016

 ---------------------------------------------------------------
 #p ROCCSD(T)/cc-pVTZ Guess=Read SCF=(VeryTight,CDIIS,VShift=10)
 ---------------------------------------------------------------

 -------
 O2_O2_1
 -------
 Symbolic Z-matrix:
 Charge = -2 Multiplicity = 1

                         Standard orientation:
 ---------------------------------------------------------------------
 Center     Atomic      Atomic             Coordinates (Angstroms)
 Number     Number       Type             X           Y           Z
 ---------------------------------------------------------------------
      1          8           0        0.000000    0.000000    0.799655
      2          8           0        0.000000    0.000000    2.152035
      3          8           0        0.000000    0.000000   -2.152035
      4          8           0        0.000000    0.000000   -0.799655
 ---------------------------------------------------------------------

 SCF Done:  E(ROHF) =  -298.847562810     A.U. after   10 cycles
 E2 =    -0.1090899089D+01 EUMP2 =    -0.29993846189870D+03
 CCSD(T)
 CCSD(T)= -0.29995770367D+03

 Unable to determine electronic state:  an orbital has unidentified symmetry.
 Alpha  occ. eigenvalues --  -20.16075 -20.16065 -20.07097 -20.07097  -0.99208
 Alpha  occ. eigenvalues --   -0.93917  -0.66758  -0.50881  -0.19540  -0.17929
 Alpha  occ. eigenvalues --   -0.11932  -0.11359  -0.04540   0.03257   0.05407
 Alpha  occ. eigenvalues --    0.11228   0.16780
 Alpha virt. eigenvalues --    0.48669   0.80619   0.92409   1.17512   1.18973
 Alpha virt. eigenvalues --    1.19865   1.21489   1.24250   1.24984   1.29439
 Alpha virt. eigenvalues --    1.30987   1.38675   1.38812   1.45184   1.46780

 Mulliken charges and spin densities:
               1          2
     1  O   -0.202218   0.000000
     2  O   -0.797782   0.000000
     3  O   -0.797782   0.000000
     4  O   -0.202218   0.000000
 Sum of Mulliken charges =  -2.00000   0.00000

 Dipole moment (field-independent basis, Debye):
    X=             -0.0000    Y=              0.0000    Z=             -0.0000  Tot=              0.0000
 Quadrupole moment (field-independent basis, Debye-Ang):
   XX=            -24.4081   YY=            -25.5644   ZZ=            -63.5896
   XY=              0.0000   XZ=              0.0000   YZ=              0.0000

 CCSD(T)/cc-pVTZ Guess=Read SCF=(VeryTight,CDIIS,VShift=10)\\O2_O2_1\\-
 CCSD=-299.8875782\CCSD(T)=-299.9577037\RMSD=5.849e-09\PG=D*H [C*(O1O1.
 Normal termination of Gaussian 16 at Sat Jan 14 17:21:09 2023.
