 Gaussian 16, Revision A.03,
 Gaussian 16:  ES64L-G16RevA.03 25-Dec-2016

 ---------------------------------------------------------------
 #p ROCCSD(T)/cc-pVTZ Guess=Read SCF=(VeryTight,CDIIS,VShift=10)
 ---------------------------------------------------------------

 --------
 O2_O2_90
 --------
 Symbolic Z-matrix:
 Charge = -2 Multiplicity = 1

                         Standard orientation:
 ---------------------------------------------------------------------
 Center     Atomic      Atomic             Coordinates (Angstroms)
 Number     Number       Type             X           Y           Z
 ---------------------------------------------------------------------
      1          8           0        0.000000    0.000000    1.429712
      2          8           0        0.000000    0.000000    2.782092
      3          8           0        0.000000    0.000000   -2.782092
      4          8           0        0.000000    0.000000   -1.429712
 ---------------------------------------------------------------------

 SCF Done:  E(ROHF) =  -298.905503163     A.U. after    9 cycles
 E2 =    -0.1200422867D+01 EUMP2 =    -0.30010592602993D+03
 CCSD(T)
 CCSD(T)= -0.30010110184D+03

 Unable to determine electronic state:  an orbital has unidentified symmetry.
 Alpha  occ. eigenvalues --  -20.18176 -20.18175 -20.15265 -20.15265  -0.99874
 Alpha  occ. eigenvalues --   -0.99712  -0.62069  -0.61131  -0.18381  -0.18093
 Alpha  occ. eigenvalues --   -0.16283  -0.14117  -0.12110  -0.11057   0.03124
 Alpha  occ. eigenvalues --    0.03728   0.20245
 Alpha virt. eigenvalues --    0.35239   0.74797   0.81911   1.14063   1.15794
 Alpha virt. eigenvalues --    1.16261   1.17515   1.18037   1.19031   1.19966
 Alpha virt. eigenvalues --    1.23511   1.24982   1.32463   1.33945   1.38105

 Mulliken charges and spin densities:
               1          2
     1  O   -0.383608   0.000000
     2  O   -0.616392  -0.000000
     3  O   -0.616392  -0.000000
     4  O   -0.383608   0.000000
 Sum of Mulliken charges =  -2.00000  -0.00000

 Dipole moment (field-independent basis, Debye):
    X=             -0.0000    Y=              0.0000    Z=              0.0000  Tot=              0.0000
 Quadrupole moment (field-independent basis, Debye-Ang):
   XX=            -24.3522   YY=            -25.6883   ZZ=            -80.0500
   XY=              0.0000   XZ=              0.0000   YZ=              0.0000

 CCSD(T)/cc-pVTZ Guess=Read SCF=(VeryTight,CDIIS,VShift=10)\\O2_O2_90\\
 8\CCSD=-299.9850719\CCSD(T)=-300.1011018\RMSD=2.668e-09\PG=D*H [C*(O1O
 Normal termination of Gaussian 16 at Sat Jan 14 19:09:53 2023.
