 Gaussian 16, Revision A.03,
 Gaussian 16:  ES64L-G16RevA.03 25-Dec-2016

 -------------------------------------
 #p CCSD(T)/cc-pVTZ Guess=Read SCF=XQC
 -------------------------------------

 ---------
 O2_O2_197
 ---------
 Symbolic Z-matrix:
 Charge = -2 Multiplicity = 1

                         Standard orientation:
 ---------------------------------------------------------------------
 Center     Atomic      Atomic             Coordinates (Angstroms)
 Number     Number       Type             X           Y           Z
 ---------------------------------------------------------------------
      1          8           0        0.000000    0.000000    2.187196
      2          8           0        0.000000    0.000000    3.539576
      3          8           0        0.000000    0.000000   -3.539576
      4          8           0        0.000000    0.000000   -2.187196
 ---------------------------------------------------------------------

 SCF Done:  E(RHF) =  -298.910090033     A.U. after    8 cycles
 E2 =    -0.1326584093D+01 EUMP2 =    -0.30023667412584D+03
 CCSD(T)
 CCSD(T)= -0.30014693082D+03

 Unable to determine electronic state:  an orbital has unidentified symmetry.
 Alpha  occ. eigenvalues --  -20.20392 -20.20392 -20.19184 -20.19184  -1.02871
 Alpha  occ. eigenvalues --   -1.02862  -0.64872  -0.64804  -0.21309  -0.21301
 Alpha  occ. eigenvalues --   -0.18614  -0.18505  -0.14853  -0.14543   0.00251
 Alpha  occ. eigenvalues --    0.00270   0.19513
 Alpha virt. eigenvalues --    0.29258   0.72736   0.74943   1.11688   1.14139
 Alpha virt. eigenvalues --    1.15108   1.15215   1.16100   1.16202   1.16588
 Alpha virt. eigenvalues --    1.21190   1.23552   1.23927   1.25041   1.25410

 Mulliken charges:
               1
     1  O   -0.439601
     2  O   -0.560399
     3  O   -0.560399
     4  O   -0.439601
 Sum of Mulliken charges =  -2.00000

 Dipole moment (field-independent basis, Debye):
    X=             -0.0000    Y=              0.0000    Z=             -0.0000  Tot=              0.0000
 Quadrupole moment (field-independent basis, Debye-Ang):
   XX=            -24.2395   YY=            -25.6651   ZZ=           -114.4011
   XY=              0.0000   XZ=              0.0000   YZ=              0.0000

 Normal termination of Gaussian 16 at Wed Jan  4 21:04:05 2023.
