 Gaussian 16, Revision A.03,
 Gaussian 16:  ES64L-G16RevA.03 25-Dec-2016

 -------------------------------------
 #p CCSD(T)/cc-pVTZ Guess=Read SCF=XQC
 -------------------------------------

 --------
 O2_O2_86
 --------
 Symbolic Z-matrix:
 Charge = -2 Multiplicity = 1

                         Standard orientation:
 ---------------------------------------------------------------------
 Center     Atomic      Atomic             Coordinates (Angstroms)
 Number     Number       Type             X           Y           Z
 ---------------------------------------------------------------------
      1          8           0        0.000000    0.000000    1.401395
      2          8           0        0.000000    0.000000    2.753775
      3          8           0        0.000000    0.000000   -2.753775
      4          8           0        0.000000    0.000000   -1.401395
 ---------------------------------------------------------------------

 SCF Done:  E(RHF) =  -298.905796506     A.U. after    9 cycles
 E2 =    -0.1195026935D+01 EUMP2 =    -0.30010082344055D+03
 CCSD(T)
 CCSD(T)= -0.30009863541D+03

 Unable to determine electronic state:  an orbital has unidentified symmetry.
 Alpha  occ. eigenvalues --  -20.18095 -20.18094 -20.15054 -20.15054  -0.99740
 Alpha  occ. eigenvalues --   -0.99555  -0.61974  -0.60916  -0.18256  -0.17928
 Alpha  occ. eigenvalues --   -0.16237  -0.13832  -0.11993  -0.10873   0.03243
 Alpha  occ. eigenvalues --    0.03916   0.20236
 Alpha virt. eigenvalues --    0.35587   0.75138   0.82192   1.15034   1.15804
 Alpha virt. eigenvalues --    1.16231   1.17520   1.18365   1.19216   1.20147
 Alpha virt. eigenvalues --    1.23519   1.24980   1.33075   1.34557   1.38200

 Mulliken charges:
               1
     1  O   -0.379841
     2  O   -0.620159
     3  O   -0.620159
     4  O   -0.379841
 Sum of Mulliken charges =  -2.00000

 Dipole moment (field-independent basis, Debye):
    X=             -0.0000    Y=              0.0000    Z=              0.0000  Tot=              0.0000
 Quadrupole moment (field-independent basis, Debye-Ang):
   XX=            -24.3615   YY=            -25.6896   ZZ=            -79.0095
   XY=              0.0000   XZ=              0.0000   YZ=              0.0000

 Normal termination of Gaussian 16 at Wed Jan  4 20:00:43 2023.
