 Gaussian 16, Revision A.03,
 Gaussian 16:  ES64L-G16RevA.03 25-Dec-2016

 -------------------------------------
 #p CCSD(T)/cc-pVTZ Guess=Read SCF=XQC
 -------------------------------------

 --------
 O2_O2_29
 --------
 Symbolic Z-matrix:
 Charge = -2 Multiplicity = 1

                         Standard orientation:
 ---------------------------------------------------------------------
 Center     Atomic      Atomic             Coordinates (Angstroms)
 Number     Number       Type             X           Y           Z
 ---------------------------------------------------------------------
      1          8           0        0.000000    0.000000    0.997875
      2          8           0        0.000000    0.000000    2.350255
      3          8           0        0.000000    0.000000   -2.350255
      4          8           0        0.000000    0.000000   -0.997875
 ---------------------------------------------------------------------

 SCF Done:  E(RHF) =  -298.905233786     A.U. after    9 cycles
 E2 =    -0.1116432704D+01 EUMP2 =    -0.30002166648925D+03
 CCSD(T)
 CCSD(T)= -0.30004333935D+03

 Unable to determine electronic state:  an orbital has unidentified symmetry.
 Alpha  occ. eigenvalues --  -20.16796 -20.16793 -20.10843 -20.10843  -0.98045
 Alpha  occ. eigenvalues --   -0.96509  -0.62361  -0.55943  -0.17218  -0.16805
 Alpha  occ. eigenvalues --   -0.14691  -0.10589  -0.07365  -0.06423   0.04840
 Alpha  occ. eigenvalues --    0.07788   0.18967
 Alpha virt. eigenvalues --    0.42755   0.79502   0.87377   1.16921   1.17849
 Alpha virt. eigenvalues --    1.17954   1.19609   1.22194   1.23013   1.25938
 Alpha virt. eigenvalues --    1.27409   1.39125   1.39376   1.41993   1.43494

 Mulliken charges:
               1
     1  O   -0.291440
     2  O   -0.708560
     3  O   -0.708560
     4  O   -0.291440
 Sum of Mulliken charges =  -2.00000

 Dipole moment (field-independent basis, Debye):
    X=             -0.0000    Y=             -0.0000    Z=             -0.0000  Tot=              0.0000
 Quadrupole moment (field-independent basis, Debye-Ang):
   XX=            -24.4951   YY=            -25.6865   ZZ=            -66.7416
   XY=              0.0000   XZ=              0.0000   YZ=              0.0000

 3985\MP4DQ=-299.9406915\MP4SDQ=-299.9667489\CCSD=-299.9577767\CCSD(T)=
 Normal termination of Gaussian 16 at Wed Jan  4 19:28:03 2023.
