 Gaussian 16, Revision A.03,
 Gaussian 16:  ES64L-G16RevA.03 25-Dec-2016

 -------------------------------------
 #p CCSD(T)/cc-pVTZ Guess=Read SCF=XQC
 -------------------------------------

 ---------
 O2_O2_207
 ---------
 Symbolic Z-matrix:
 Charge = -2 Multiplicity = 1

                         Standard orientation:
 ---------------------------------------------------------------------
 Center     Atomic      Atomic             Coordinates (Angstroms)
 Number     Number       Type             X           Y           Z
 ---------------------------------------------------------------------
      1          8           0        0.000000    0.000000    2.257989
      2          8           0        0.000000    0.000000    3.610369
      3          8           0        0.000000    0.000000   -3.610369
      4          8           0        0.000000    0.000000   -2.257989
 ---------------------------------------------------------------------

 SCF Done:  E(RHF) =  -298.911001237     A.U. after    8 cycles
 E2 =    -0.1337144087D+01 EUMP2 =    -0.30024814532436D+03
 CCSD(T)
 CCSD(T)= -0.30014993148D+03

 Unable to determine electronic state:  an orbital has unidentified symmetry.
 Alpha  occ. eigenvalues --  -20.20584 -20.20584 -20.19442 -20.19442  -1.03093
 Alpha  occ. eigenvalues --   -1.03086  -0.65097  -0.65039  -0.21530  -0.21525
 Alpha  occ. eigenvalues --   -0.18833  -0.18755  -0.15063  -0.14777   0.00028
 Alpha  occ. eigenvalues --    0.00041   0.19419
 Alpha virt. eigenvalues --    0.28892   0.72784   0.74445   1.11965   1.13812
 Alpha virt. eigenvalues --    1.14910   1.14981   1.15901   1.15969   1.16690
 Alpha virt. eigenvalues --    1.19967   1.23386   1.23633   1.24873   1.25116

 Mulliken charges:
               1
     1  O   -0.442499
     2  O   -0.557501
     3  O   -0.557501
     4  O   -0.442499
 Sum of Mulliken charges =  -2.00000

 Dipole moment (field-independent basis, Debye):
    X=             -0.0000    Y=              0.0000    Z=             -0.0000  Tot=              0.0000
 Quadrupole moment (field-independent basis, Debye-Ang):
   XX=            -24.2370   YY=            -25.6639   ZZ=           -118.2215
   XY=              0.0000   XZ=              0.0000   YZ=              0.0000

 Normal termination of Gaussian 16 at Wed Jan  4 21:09:54 2023.
