 Gaussian 16, Revision A.03,
 Gaussian 16:  ES64L-G16RevA.03 25-Dec-2016

 -------------------------------------
 #p CCSD(T)/cc-pVTZ Guess=Read SCF=XQC
 -------------------------------------

 ---------
 O2_O2_226
 ---------
 Symbolic Z-matrix:
 Charge = -2 Multiplicity = 1

                         Standard orientation:
 ---------------------------------------------------------------------
 Center     Atomic      Atomic             Coordinates (Angstroms)
 Number     Number       Type             X           Y           Z
 ---------------------------------------------------------------------
      1          8           0        0.000000    0.000000    2.392496
      2          8           0        0.000000    0.000000    3.744876
      3          8           0        0.000000    0.000000   -3.744876
      4          8           0        0.000000    0.000000   -2.392496
 ---------------------------------------------------------------------

 SCF Done:  E(RHF) =  -298.912719775     A.U. after    8 cycles
 E2 =    -0.1356932373D+01 EUMP2 =    -0.30026965214788D+03
 CCSD(T)
 CCSD(T)= -0.30015524521D+03

 Unable to determine electronic state:  an orbital has unidentified symmetry.
 Alpha  occ. eigenvalues --  -20.20933 -20.20932 -20.19899 -20.19899  -1.03490
 Alpha  occ. eigenvalues --   -1.03485  -0.65499  -0.65455  -0.21927  -0.21924
 Alpha  occ. eigenvalues --   -0.19232  -0.19191  -0.15439  -0.15193  -0.00373
 Alpha  occ. eigenvalues --   -0.00367   0.19245
 Alpha virt. eigenvalues --    0.28248   0.72744   0.73648   1.12159   1.13183
 Alpha virt. eigenvalues --    1.14543   1.14574   1.15535   1.15565   1.16786
 Alpha virt. eigenvalues --    1.18382   1.23048   1.23154   1.24532   1.24637

 Mulliken charges:
               1
     1  O   -0.447461
     2  O   -0.552539
     3  O   -0.552539
     4  O   -0.447461
 Sum of Mulliken charges =  -2.00000

 Dipole moment (field-independent basis, Debye):
    X=             -0.0000    Y=             -0.0000    Z=              0.0000  Tot=              0.0000
 Quadrupole moment (field-independent basis, Debye-Ang):
   XX=            -24.2337   YY=            -25.6620   ZZ=           -125.7584
   XY=              0.0000   XZ=              0.0000   YZ=              0.0000

 Normal termination of Gaussian 16 at Wed Jan  4 21:20:43 2023.
