 Gaussian 16, Revision A.03,
 Gaussian 16:  ES64L-G16RevA.03 25-Dec-2016

 ---------------------------------------------------------------
 #p ROCCSD(T)/cc-pVTZ Guess=Read SCF=(VeryTight,CDIIS,VShift=10)
 ---------------------------------------------------------------

 ---------
 O2_O2_177
 ---------
 Symbolic Z-matrix:
 Charge = -2 Multiplicity = 1

                         Standard orientation:
 ---------------------------------------------------------------------
 Center     Atomic      Atomic             Coordinates (Angstroms)
 Number     Number       Type             X           Y           Z
 ---------------------------------------------------------------------
      1          8           0        0.000000    0.000000    2.045610
      2          8           0        0.000000    0.000000    3.397990
      3          8           0        0.000000    0.000000   -3.397990
      4          8           0        0.000000    0.000000   -2.045610
 ---------------------------------------------------------------------

 SCF Done:  E(ROHF) =  -298.908311378     A.U. after    8 cycles
 E2 =    -0.1305065907D+01 EUMP2 =    -0.30021337728452D+03
 CCSD(T)
 CCSD(T)= -0.30014045013D+03

 Unable to determine electronic state:  an orbital has unidentified symmetry.
 Alpha  occ. eigenvalues --  -20.19993 -20.19992 -20.18627 -20.18627  -1.02398
 Alpha  occ. eigenvalues --   -1.02385  -0.64396  -0.64297  -0.20839  -0.20823
 Alpha  occ. eigenvalues --   -0.18157  -0.17956  -0.14409  -0.14039   0.00723
 Alpha  occ. eigenvalues --    0.00763   0.19703
 Alpha virt. eigenvalues --    0.30056   0.72500   0.76089   1.10680   1.14724
 Alpha virt. eigenvalues --    1.15505   1.15735   1.16415   1.16500   1.16718
 Alpha virt. eigenvalues --    1.23827   1.24645   1.24759   1.25323   1.26128

 Mulliken charges and spin densities:
               1          2
     1  O   -0.433090  -0.000000
     2  O   -0.566910  -0.000000
     3  O   -0.566910  -0.000000
     4  O   -0.433090  -0.000000
 Sum of Mulliken charges =  -2.00000  -0.00000

 Dipole moment (field-independent basis, Debye):
    X=             -0.0000    Y=             -0.0000    Z=              0.0000  Tot=              0.0000
 Quadrupole moment (field-independent basis, Debye-Ang):
   XX=            -24.2465   YY=            -25.6678   ZZ=           -107.0645
   XY=              0.0000   XZ=              0.0000   YZ=              0.0000

 CCSD(T)/cc-pVTZ Guess=Read SCF=(VeryTight,CDIIS,VShift=10)\\O2_O2_177\
 88\CCSD=-300.0055146\CCSD(T)=-300.1404501\RMSD=3.773e-09\PG=D*H [C*(O1
 Normal termination of Gaussian 16 at Sat Jan 14 21:01:14 2023.
