 Gaussian 16, Revision A.03,
 Gaussian 16:  ES64L-G16RevA.03 25-Dec-2016

 -------------------------------------
 #p CCSD(T)/cc-pVTZ Guess=Read SCF=XQC
 -------------------------------------

 ---------
 O2_O2_127
 ---------
 Symbolic Z-matrix:
 Charge = -2 Multiplicity = 1

                         Standard orientation:
 ---------------------------------------------------------------------
 Center     Atomic      Atomic             Coordinates (Angstroms)
 Number     Number       Type             X           Y           Z
 ---------------------------------------------------------------------
      1          8           0        0.000000    0.000000    1.691645
      2          8           0        0.000000    0.000000    3.044026
      3          8           0        0.000000    0.000000   -3.044026
      4          8           0        0.000000    0.000000   -1.691645
 ---------------------------------------------------------------------

 SCF Done:  E(RHF) =  -298.905023623     A.U. after    8 cycles
 E2 =    -0.1247731085D+01 EUMP2 =    -0.30015275470726D+03
 CCSD(T)
 CCSD(T)= -0.30012063137D+03

 Unable to determine electronic state:  an orbital has unidentified symmetry.
 Alpha  occ. eigenvalues --  -20.18944 -20.18943 -20.16933 -20.16933  -1.01042
 Alpha  occ. eigenvalues --   -1.00992  -0.63067  -0.62743  -0.19503  -0.19416
 Alpha  occ. eigenvalues --   -0.16977  -0.16161  -0.13156  -0.12522   0.02044
 Alpha  occ. eigenvalues --    0.02254   0.20127
 Alpha virt. eigenvalues --    0.32582   0.72434   0.79409   1.08697   1.15632
 Alpha virt. eigenvalues --    1.16285   1.16837   1.17339   1.17431   1.18394
 Alpha virt. eigenvalues --    1.23842   1.25358   1.27872   1.29357   1.37080

 Mulliken charges:
               1
     1  O   -0.410558
     2  O   -0.589442
     3  O   -0.589442
     4  O   -0.410558
 Sum of Mulliken charges =  -2.00000

 Dipole moment (field-independent basis, Debye):
    X=             -0.0000    Y=              0.0000    Z=              0.0000  Tot=              0.0000
 Quadrupole moment (field-independent basis, Debye-Ang):
   XX=            -24.2867   YY=            -25.6775   ZZ=            -90.5396
   XY=              0.0000   XZ=              0.0000   YZ=              0.0000

 Normal termination of Gaussian 16 at Wed Jan  4 20:23:23 2023.
