 Gaussian 16, Revision A.03,
 Gaussian 16:  ES64L-G16RevA.03 25-Dec-2016

 -------------------------------------
 #p CCSD(T)/cc-pVTZ Guess=Read SCF=XQC
 -------------------------------------

 --------
 O2_O2_93
 --------
 Symbolic Z-matrix:
 Charge = -2 Multiplicity = 1

                         Standard orientation:
 ---------------------------------------------------------------------
 Center     Atomic      Atomic             Coordinates (Angstroms)
 Number     Number       Type             X           Y           Z
 ---------------------------------------------------------------------
      1          8           0        0.000000    0.000000    1.450950
      2          8           0        0.000000    0.000000    2.803330
      3          8           0        0.000000    0.000000   -2.803330
      4          8           0        0.000000    0.000000   -1.450950
 ---------------------------------------------------------------------

 SCF Done:  E(RHF) =  -298.905316020     A.U. after    9 cycles
 E2 =    -0.1204435452D+01 EUMP2 =    -0.30010975147197D+03
 CCSD(T)
 CCSD(T)= -0.30010289718D+03

 Unable to determine electronic state:  an orbital has unidentified symmetry.
 Alpha  occ. eigenvalues --  -20.18237 -20.18236 -20.15419 -20.15419  -0.99973
 Alpha  occ. eigenvalues --   -0.99827  -0.62143  -0.61286  -0.18475  -0.18213
 Alpha  occ. eigenvalues --   -0.16324  -0.14321  -0.12197  -0.11191   0.03034
 Alpha  occ. eigenvalues --    0.03591   0.20249
 Alpha virt. eigenvalues --    0.34987   0.74546   0.81702   1.13345   1.15789
 Alpha virt. eigenvalues --    1.16283   1.17513   1.17861   1.18894   1.19831
 Alpha virt. eigenvalues --    1.23514   1.24992   1.32016   1.33498   1.38033

 Mulliken charges:
               1
     1  O   -0.386302
     2  O   -0.613698
     3  O   -0.613698
     4  O   -0.386302
 Sum of Mulliken charges =  -2.00000

 Dipole moment (field-independent basis, Debye):
    X=             -0.0000    Y=             -0.0000    Z=             -0.0000  Tot=              0.0000
 Quadrupole moment (field-independent basis, Debye-Ang):
   XX=            -24.3455   YY=            -25.6873   ZZ=            -80.8429
   XY=              0.0000   XZ=              0.0000   YZ=              0.0000

 16184\MP4DQ=-299.9344226\MP4SDQ=-299.961909\CCSD=-299.9858212\CCSD(T)=
 Normal termination of Gaussian 16 at Wed Jan  4 20:04:39 2023.
