 Gaussian 16, Revision A.03,
 Gaussian 16:  ES64L-G16RevA.03 25-Dec-2016

 ---------------------------------------------------------------
 #p ROCCSD(T)/cc-pVTZ Guess=Read SCF=(VeryTight,CDIIS,VShift=10)
 ---------------------------------------------------------------

 --------
 O2_O2_36
 --------
 Symbolic Z-matrix:
 Charge = -2 Multiplicity = 1

                         Standard orientation:
 ---------------------------------------------------------------------
 Center     Atomic      Atomic             Coordinates (Angstroms)
 Number     Number       Type             X           Y           Z
 ---------------------------------------------------------------------
      1          8           0        0.000000    0.000000    1.047430
      2          8           0        0.000000    0.000000    2.399810
      3          8           0        0.000000    0.000000   -2.399810
      4          8           0        0.000000    0.000000   -1.047430
 ---------------------------------------------------------------------

 SCF Done:  E(ROHF) =  -298.908079825     A.U. after    9 cycles
 E2 =    -0.1125568497D+01 EUMP2 =    -0.30003364832237D+03
 CCSD(T)
 CCSD(T)= -0.30005417943D+03

 Unable to determine electronic state:  an orbital has unidentified symmetry.
 Alpha  occ. eigenvalues --  -20.16991 -20.16989 -20.11535 -20.11535  -0.98167
 Alpha  occ. eigenvalues --   -0.97005  -0.61956  -0.56846  -0.16883  -0.16850
 Alpha  occ. eigenvalues --   -0.15220  -0.10685  -0.07920  -0.07893   0.04670
 Alpha  occ. eigenvalues --    0.07140   0.19300
 Alpha virt. eigenvalues --    0.41578   0.79047   0.86530   1.16659   1.17329
 Alpha virt. eigenvalues --    1.17929   1.19064   1.21771   1.22610   1.25347
 Alpha virt. eigenvalues --    1.26781   1.38458   1.39085   1.41014   1.41888

 Mulliken charges and spin densities:
               1          2
     1  O   -0.307004   0.000000
     2  O   -0.692996   0.000000
     3  O   -0.692996   0.000000
     4  O   -0.307004   0.000000
 Sum of Mulliken charges =  -2.00000   0.00000

 Dipole moment (field-independent basis, Debye):
    X=             -0.0000    Y=              0.0000    Z=             -0.0000  Tot=              0.0000
 Quadrupole moment (field-independent basis, Debye-Ang):
   XX=            -24.4874   YY=            -25.6947   ZZ=            -67.9217
   XY=              0.0000   XZ=              0.0000   YZ=              0.0000

 CCSD(T)/cc-pVTZ Guess=Read SCF=(VeryTight,CDIIS,VShift=10)\\O2_O2_36\\
 2\CCSD=-299.9643709\CCSD(T)=-300.0541794\RMSD=7.110e-09\PG=D*H [C*(O1O
 Normal termination of Gaussian 16 at Sat Jan 14 18:03:24 2023.
