 Gaussian 16, Revision A.03,
 Gaussian 16:  ES64L-G16RevA.03 25-Dec-2016

 ----------------------------------------------------
 #p ROCCSD(T)/cc-pVTZ SCF=(VeryTight,CDIIS,VShift=10)
 ----------------------------------------------------

 -------
 O2_O2_0
 -------
 Symbolic Z-matrix:
 Charge = -2 Multiplicity = 1

                         Standard orientation:
 ---------------------------------------------------------------------
 Center     Atomic      Atomic             Coordinates (Angstroms)
 Number     Number       Type             X           Y           Z
 ---------------------------------------------------------------------
      1          8           0        0.000000    0.000000    0.792575
      2          8           0        0.000000    0.000000    2.144956
      3          8           0        0.000000    0.000000   -2.144956
      4          8           0        0.000000    0.000000   -0.792575
 ---------------------------------------------------------------------

 SCF Done:  E(ROHF) =  -298.842924772     A.U. after   12 cycles
 E2 =    -0.1090620787D+01 EUMP2 =    -0.29993354555968D+03
 CCSD(T)
 CCSD(T)= -0.29995243602D+03

 Unable to determine electronic state:  an orbital has unidentified symmetry.
 Alpha  occ. eigenvalues --  -20.16069 -20.16059 -20.06923 -20.06923  -0.99366
 Alpha  occ. eigenvalues --   -0.93803  -0.67027  -0.50650  -0.19643  -0.18056
 Alpha  occ. eigenvalues --   -0.11811  -0.11461  -0.04416   0.03769   0.05427
 Alpha  occ. eigenvalues --    0.11380   0.16676
 Alpha virt. eigenvalues --    0.48918   0.80613   0.92665   1.17454   1.19101
 Alpha virt. eigenvalues --    1.19903   1.21514   1.24338   1.25068   1.29594
 Alpha virt. eigenvalues --    1.31133   1.38591   1.38791   1.45271   1.46873

 Mulliken charges and spin densities:
               1          2
     1  O   -0.197763   0.000000
     2  O   -0.802237   0.000000
     3  O   -0.802237   0.000000
     4  O   -0.197763   0.000000
 Sum of Mulliken charges =  -2.00000   0.00000

 Dipole moment (field-independent basis, Debye):
    X=             -0.0000    Y=              0.0000    Z=             -0.0000  Tot=              0.0000
 Quadrupole moment (field-independent basis, Debye-Ang):
   XX=            -24.3995   YY=            -25.5558   ZZ=            -63.5413
   XY=              0.0000   XZ=              0.0000   YZ=              0.0000

 CCSD(T)/cc-pVTZ SCF=(VeryTight,CDIIS,VShift=10)\\O2_O2_0\\-2,1\O,0,0.6
 9.8827121\CCSD(T)=-299.952436\RMSD=2.948e-09\PG=D*H [C*(O1O1.O1O1)]\\@
 Normal termination of Gaussian 16 at Sat Jan 14 17:19:59 2023.
