 Gaussian 16, Revision A.03,
 Gaussian 16:  ES64L-G16RevA.03 25-Dec-2016

 -------------------------------------
 #p CCSD(T)/cc-pVTZ Guess=Read SCF=XQC
 -------------------------------------

 ---------
 O2_O2_256
 ---------
 Symbolic Z-matrix:
 Charge = -2 Multiplicity = 1

                         Standard orientation:
 ---------------------------------------------------------------------
 Center     Atomic      Atomic             Coordinates (Angstroms)
 Number     Number       Type             X           Y           Z
 ---------------------------------------------------------------------
      1          8           0        0.000000    0.000000    2.604874
      2          8           0        0.000000    0.000000    3.957254
      3          8           0        0.000000    0.000000   -3.957254
      4          8           0        0.000000    0.000000   -2.604874
 ---------------------------------------------------------------------

 SCF Done:  E(RHF) =  -298.915300995     A.U. after    8 cycles
 E2 =    -0.1387664289D+01 EUMP2 =    -0.30030296528400D+03
 CCSD(T)
 CCSD(T)= -0.30016273260D+03

 Unable to determine electronic state:  an orbital has unidentified symmetry.
 Alpha  occ. eigenvalues --  -20.21438 -20.21437 -20.20542 -20.20542  -1.04056
 Alpha  occ. eigenvalues --   -1.04053  -0.66073  -0.66041  -0.22492  -0.22491
 Alpha  occ. eigenvalues --   -0.19809  -0.19795  -0.15979  -0.15781  -0.00944
 Alpha  occ. eigenvalues --   -0.00942   0.18987
 Alpha virt. eigenvalues --    0.27349   0.72436   0.72727   1.11984   1.12327
 Alpha virt. eigenvalues --    1.14004   1.14011   1.14996   1.15004   1.16592
 Alpha virt. eigenvalues --    1.17026   1.22511   1.22536   1.23993   1.24017

 Mulliken charges:
               1
     1  O   -0.454094
     2  O   -0.545906
     3  O   -0.545906
     4  O   -0.454094
 Sum of Mulliken charges =  -2.00000

 Dipole moment (field-independent basis, Debye):
    X=             -0.0000    Y=             -0.0000    Z=              0.0000  Tot=              0.0000
 Quadrupole moment (field-independent basis, Debye-Ang):
   XX=            -24.2305   YY=            -25.6596   ZZ=           -138.3992
   XY=              0.0000   XZ=              0.0000   YZ=              0.0000

 Normal termination of Gaussian 16 at Wed Jan  4 21:38:35 2023.
