 Gaussian 16, Revision A.03,
 Gaussian 16:  ES64L-G16RevA.03 25-Dec-2016

 -------------------------------------
 #p CCSD(T)/cc-pVTZ Guess=Read SCF=XQC
 -------------------------------------

 --------
 O2_O2_38
 --------
 Symbolic Z-matrix:
 Charge = -2 Multiplicity = 1

                         Standard orientation:
 ---------------------------------------------------------------------
 Center     Atomic      Atomic             Coordinates (Angstroms)
 Number     Number       Type             X           Y           Z
 ---------------------------------------------------------------------
      1          8           0        0.000000    0.000000    1.061589
      2          8           0        0.000000    0.000000    2.413969
      3          8           0        0.000000    0.000000   -2.413969
      4          8           0        0.000000    0.000000   -1.061589
 ---------------------------------------------------------------------

 SCF Done:  E(RHF) =  -298.908538760     A.U. after    9 cycles
 E2 =    -0.1128259736D+01 EUMP2 =    -0.30003679849643D+03
 CCSD(T)
 CCSD(T)= -0.30005689658D+03

 Unable to determine electronic state:  an orbital has unidentified symmetry.
 Alpha  occ. eigenvalues --  -20.17044 -20.17042 -20.11720 -20.11720  -0.98212
 Alpha  occ. eigenvalues --   -0.97138  -0.61871  -0.57083  -0.16916  -0.16761
 Alpha  occ. eigenvalues --   -0.15362  -0.10721  -0.08268  -0.08070   0.04619
 Alpha  occ. eigenvalues --    0.06966   0.19382
 Alpha virt. eigenvalues --    0.41261   0.78912   0.86306   1.16593   1.17196
 Alpha virt. eigenvalues --    1.17920   1.18920   1.21655   1.22499   1.25197
 Alpha virt. eigenvalues --    1.26622   1.37880   1.39068   1.40724   1.41363

 Mulliken charges:
               1
     1  O   -0.311158
     2  O   -0.688842
     3  O   -0.688842
     4  O   -0.311158
 Sum of Mulliken charges =  -2.00000

 Dipole moment (field-independent basis, Debye):
    X=             -0.0000    Y=              0.0000    Z=              0.0000  Tot=              0.0000
 Quadrupole moment (field-independent basis, Debye-Ang):
   XX=            -24.4841   YY=            -25.6962   ZZ=            -68.2802
   XY=              0.0000   XZ=              0.0000   YZ=              0.0000

 Normal termination of Gaussian 16 at Wed Jan  4 19:32:46 2023.
