 Gaussian 16, Revision A.03,
 Gaussian 16:  ES64L-G16RevA.03 25-Dec-2016

 ---------------------------------------------------------------
 #p ROCCSD(T)/cc-pVTZ Guess=Read SCF=(VeryTight,CDIIS,VShift=10)
 ---------------------------------------------------------------

 ---------
 O2_O2_259
 ---------
 Symbolic Z-matrix:
 Charge = -2 Multiplicity = 1

                         Standard orientation:
 ---------------------------------------------------------------------
 Center     Atomic      Atomic             Coordinates (Angstroms)
 Number     Number       Type             X           Y           Z
 ---------------------------------------------------------------------
      1          8           0        0.000000    0.000000    2.626112
      2          8           0        0.000000    0.000000    3.978492
      3          8           0        0.000000    0.000000   -3.978492
      4          8           0        0.000000    0.000000   -2.626112
 ---------------------------------------------------------------------

 SCF Done:  E(ROHF) =  -298.915547067     A.U. after    8 cycles
 E2 =    -0.1390713173D+01 EUMP2 =    -0.30030626024023D+03
 CCSD(T)
 CCSD(T)= -0.30016342873D+03

 Unable to determine electronic state:  an orbital has unidentified symmetry.
 Alpha  occ. eigenvalues --  -20.21485 -20.21485 -20.20601 -20.20601  -1.04109
 Alpha  occ. eigenvalues --   -1.04106  -0.66127  -0.66096  -0.22545  -0.22544
 Alpha  occ. eigenvalues --   -0.19863  -0.19850  -0.16029  -0.15835  -0.00997
 Alpha  occ. eigenvalues --   -0.00996   0.18963
 Alpha virt. eigenvalues --    0.27266   0.72396   0.72653   1.11951   1.12255
 Alpha virt. eigenvalues --    1.13953   1.13959   1.14945   1.14952   1.16555
 Alpha virt. eigenvalues --    1.16933   1.22459   1.22480   1.23941   1.23962

 Mulliken charges and spin densities:
               1          2
     1  O   -0.454688   0.000000
     2  O   -0.545312   0.000000
     3  O   -0.545312   0.000000
     4  O   -0.454688   0.000000
 Sum of Mulliken charges =  -2.00000   0.00000

 Dipole moment (field-independent basis, Debye):
    X=             -0.0000    Y=              0.0000    Z=              0.0000  Tot=              0.0000
 Quadrupole moment (field-independent basis, Debye-Ang):
   XX=            -24.2302   YY=            -25.6594   ZZ=           -139.7130
   XY=              0.0000   XZ=              0.0000   YZ=              0.0000

 CCSD(T)/cc-pVTZ Guess=Read SCF=(VeryTight,CDIIS,VShift=10)\\O2_O2_259\
 4821\CCSD=-300.0208462\CCSD(T)=-300.1634287\RMSD=3.634e-09\PG=D*H [C*(
 Normal termination of Gaussian 16 at Sat Jan 14 22:51:39 2023.
