 Gaussian 16, Revision A.03,
 Gaussian 16:  ES64L-G16RevA.03 25-Dec-2016

 ---------------------------------------------------------------
 #p ROCCSD(T)/cc-pVTZ Guess=Read SCF=(VeryTight,CDIIS,VShift=10)
 ---------------------------------------------------------------

 --------
 O2_O2_18
 --------
 Symbolic Z-matrix:
 Charge = -2 Multiplicity = 1

                         Standard orientation:
 ---------------------------------------------------------------------
 Center     Atomic      Atomic             Coordinates (Angstroms)
 Number     Number       Type             X           Y           Z
 ---------------------------------------------------------------------
      1          8           0        0.000000    0.000000    0.920002
      2          8           0        0.000000    0.000000    2.272383
      3          8           0        0.000000    0.000000   -2.272383
      4          8           0        0.000000    0.000000   -0.920002
 ---------------------------------------------------------------------

 SCF Done:  E(ROHF) =  -298.894573191     A.U. after   10 cycles
 E2 =    -0.1103515638D+01 EUMP2 =    -0.29999808882973D+03
 CCSD(T)
 CCSD(T)= -0.30002027001D+03

 Unable to determine electronic state:  an orbital has unidentified symmetry.
 Alpha  occ. eigenvalues --  -20.16467 -20.16462 -20.09590 -20.09590  -0.98044
 Alpha  occ. eigenvalues --   -0.95618  -0.63454  -0.54257  -0.17979  -0.16869
 Alpha  occ. eigenvalues --   -0.13741  -0.10581  -0.06386  -0.03497   0.05080
 Alpha  occ. eigenvalues --    0.08962   0.18282
 Alpha virt. eigenvalues --    0.44836   0.80134   0.88963   1.17472   1.17952
 Alpha virt. eigenvalues --    1.18748   1.20502   1.22922   1.23707   1.27096
 Alpha virt. eigenvalues --    1.28639   1.39098   1.39518   1.43401   1.44927

 Mulliken charges and spin densities:
               1          2
     1  O   -0.262915   0.000000
     2  O   -0.737085   0.000000
     3  O   -0.737085   0.000000
     4  O   -0.262915   0.000000
 Sum of Mulliken charges =  -2.00000   0.00000

 Dipole moment (field-independent basis, Debye):
    X=             -0.0000    Y=              0.0000    Z=             -0.0000  Tot=              0.0000
 Quadrupole moment (field-independent basis, Debye-Ang):
   XX=            -24.4894   YY=            -25.6601   ZZ=            -65.1571
   XY=              0.0000   XZ=              0.0000   YZ=              0.0000

 CCSD(T)/cc-pVTZ Guess=Read SCF=(VeryTight,CDIIS,VShift=10)\\O2_O2_18\\
 339\CCSD=-299.9413469\CCSD(T)=-300.02027\RMSD=1.478e-09\PG=D*H [C*(O1O
 Normal termination of Gaussian 16 at Sat Jan 14 17:41:01 2023.
