 Gaussian 16, Revision A.03,
 Gaussian 16:  ES64L-G16RevA.03 25-Dec-2016

 -------------------------------------
 #p CCSD(T)/cc-pVTZ Guess=Read SCF=XQC
 -------------------------------------

 --------
 O2_O2_96
 --------
 Symbolic Z-matrix:
 Charge = -2 Multiplicity = 1

                         Standard orientation:
 ---------------------------------------------------------------------
 Center     Atomic      Atomic             Coordinates (Angstroms)
 Number     Number       Type             X           Y           Z
 ---------------------------------------------------------------------
      1          8           0        0.000000    0.000000    1.472188
      2          8           0        0.000000    0.000000    2.824568
      3          8           0        0.000000    0.000000   -2.824568
      4          8           0        0.000000    0.000000   -1.472188
 ---------------------------------------------------------------------

 SCF Done:  E(RHF) =  -298.905157358     A.U. after    9 cycles
 E2 =    -0.1208417668D+01 EUMP2 =    -0.30011357502615D+03
 CCSD(T)
 CCSD(T)= -0.30010464898D+03

 Unable to determine electronic state:  an orbital has unidentified symmetry.
 Alpha  occ. eigenvalues --  -20.18298 -20.18297 -20.15569 -20.15569  -1.00072
 Alpha  occ. eigenvalues --   -0.99940  -0.62219  -0.61435  -0.18568  -0.18331
 Alpha  occ. eigenvalues --   -0.16368  -0.14516  -0.12284  -0.11321   0.02945
 Alpha  occ. eigenvalues --    0.03458   0.20249
 Alpha virt. eigenvalues --    0.34743   0.74300   0.81496   1.12662   1.15783
 Alpha virt. eigenvalues --    1.16303   1.17510   1.17718   1.18758   1.19698
 Alpha virt. eigenvalues --    1.23525   1.25010   1.31580   1.33063   1.37960

 Mulliken charges:
               1
     1  O   -0.388891
     2  O   -0.611109
     3  O   -0.611109
     4  O   -0.388891
 Sum of Mulliken charges =  -2.00000

 Dipole moment (field-independent basis, Debye):
    X=             -0.0000    Y=             -0.0000    Z=              0.0000  Tot=              0.0000
 Quadrupole moment (field-independent basis, Debye-Ang):
   XX=            -24.3390   YY=            -25.6863   ZZ=            -81.6463
   XY=              0.0000   XZ=              0.0000   YZ=              0.0000

 13696\MP4DQ=-299.931463\MP4SDQ=-299.9590875\CCSD=-299.986566\CCSD(T)=-
 Normal termination of Gaussian 16 at Wed Jan  4 20:06:20 2023.
