 Gaussian 16, Revision A.03,
 Gaussian 16:  ES64L-G16RevA.03 25-Dec-2016

 ---------------------------------------------------------------
 #p ROCCSD(T)/cc-pVTZ Guess=Read SCF=(VeryTight,CDIIS,VShift=10)
 ---------------------------------------------------------------

 ---------
 O2_O2_269
 ---------
 Symbolic Z-matrix:
 Charge = -2 Multiplicity = 1

                         Standard orientation:
 ---------------------------------------------------------------------
 Center     Atomic      Atomic             Coordinates (Angstroms)
 Number     Number       Type             X           Y           Z
 ---------------------------------------------------------------------
      1          8           0        0.000000    0.000000    2.696905
      2          8           0        0.000000    0.000000    4.049285
      3          8           0        0.000000    0.000000   -4.049285
      4          8           0        0.000000    0.000000   -2.696905
 ---------------------------------------------------------------------

 SCF Done:  E(ROHF) =  -298.916350136     A.U. after    8 cycles
 E2 =    -0.1400852075D+01 EUMP2 =    -0.30031720221163D+03
 CCSD(T)
 CCSD(T)= -0.30016567915D+03

 Unable to determine electronic state:  an orbital has unidentified symmetry.
 Alpha  occ. eigenvalues --  -20.21639 -20.21639 -20.20794 -20.20794  -1.04280
 Alpha  occ. eigenvalues --   -1.04277  -0.66300  -0.66272  -0.22716  -0.22715
 Alpha  occ. eigenvalues --   -0.20039  -0.20030  -0.16194  -0.16012  -0.01170
 Alpha  occ. eigenvalues --   -0.01169   0.18883
 Alpha virt. eigenvalues --    0.26997   0.72254   0.72421   1.11828   1.12029
 Alpha virt. eigenvalues --    1.13787   1.13791   1.14780   1.14784   1.16419
 Alpha virt. eigenvalues --    1.16653   1.22289   1.22302   1.23771   1.23783

 Mulliken charges and spin densities:
               1          2
     1  O   -0.456588   0.000000
     2  O   -0.543412   0.000000
     3  O   -0.543412   0.000000
     4  O   -0.456588   0.000000
 Sum of Mulliken charges =  -2.00000   0.00000

 Dipole moment (field-independent basis, Debye):
    X=             -0.0000    Y=              0.0000    Z=              0.0000  Tot=              0.0000
 Quadrupole moment (field-independent basis, Debye-Ang):
   XX=            -24.2295   YY=            -25.6588   ZZ=           -144.1576
   XY=              0.0000   XZ=              0.0000   YZ=              0.0000

 CCSD(T)/cc-pVTZ Guess=Read SCF=(VeryTight,CDIIS,VShift=10)\\O2_O2_269\
 CCSD=-300.0224072\CCSD(T)=-300.1656791\RMSD=3.415e-09\PG=D*H [C*(O1O1.
 Normal termination of Gaussian 16 at Sat Jan 14 23:06:09 2023.
