 Gaussian 16, Revision A.03,
 Gaussian 16:  ES64L-G16RevA.03 25-Dec-2016

 ---------------------------------------------------------------
 #p ROCCSD(T)/cc-pVTZ Guess=Read SCF=(VeryTight,CDIIS,VShift=10)
 ---------------------------------------------------------------

 ---------
 O2_O2_100
 ---------
 Symbolic Z-matrix:
 Charge = -2 Multiplicity = 1

                         Standard orientation:
 ---------------------------------------------------------------------
 Center     Atomic      Atomic             Coordinates (Angstroms)
 Number     Number       Type             X           Y           Z
 ---------------------------------------------------------------------
      1          8           0        0.000000    0.000000    1.500504
      2          8           0        0.000000    0.000000    2.852885
      3          8           0        0.000000    0.000000   -2.852885
      4          8           0        0.000000    0.000000   -1.500504
 ---------------------------------------------------------------------

 SCF Done:  E(ROHF) =  -298.904989781     A.U. after    9 cycles
 E2 =    -0.1213679017D+01 EUMP2 =    -0.30011866879776D+03
 CCSD(T)
 CCSD(T)= -0.30010692077D+03

 Unable to determine electronic state:  an orbital has unidentified symmetry.
 Alpha  occ. eigenvalues --  -20.18380 -20.18379 -20.15763 -20.15763  -1.00202
 Alpha  occ. eigenvalues --   -1.00086  -0.62323  -0.61627  -0.18692  -0.18483
 Alpha  occ. eigenvalues --   -0.16432  -0.14765  -0.12399  -0.11491   0.02826
 Alpha  occ. eigenvalues --    0.03285   0.20245
 Alpha virt. eigenvalues --    0.34428   0.73983   0.81223   1.11824   1.15776
 Alpha virt. eigenvalues --    1.16326   1.17505   1.17559   1.18578   1.19522
 Alpha virt. eigenvalues --    1.23549   1.25042   1.31018   1.32502   1.37860

 Mulliken charges and spin densities:
               1          2
     1  O   -0.392187   0.000000
     2  O   -0.607813   0.000000
     3  O   -0.607813   0.000000
     4  O   -0.392187   0.000000
 Sum of Mulliken charges =  -2.00000   0.00000

 Dipole moment (field-independent basis, Debye):
    X=             -0.0000    Y=              0.0000    Z=              0.0000  Tot=              0.0000
 Quadrupole moment (field-independent basis, Debye-Ang):
   XX=            -24.3308   YY=            -25.6850   ZZ=            -82.7336
   XY=              0.0000   XZ=              0.0000   YZ=              0.0000

 CCSD(T)/cc-pVTZ Guess=Read SCF=(VeryTight,CDIIS,VShift=10)\\O2_O2_100\
 9671\CCSD=-299.9875536\CCSD(T)=-300.1069208\RMSD=2.289e-09\PG=D*H [C*(
 Normal termination of Gaussian 16 at Sat Jan 14 19:22:25 2023.
