 Gaussian 16, Revision A.03,
 Gaussian 16:  ES64L-G16RevA.03 25-Dec-2016

 -------------------------------------
 #p CCSD(T)/cc-pVTZ Guess=Read SCF=XQC
 -------------------------------------

 ---------
 O2_O2_123
 ---------
 Symbolic Z-matrix:
 Charge = -2 Multiplicity = 1

                         Standard orientation:
 ---------------------------------------------------------------------
 Center     Atomic      Atomic             Coordinates (Angstroms)
 Number     Number       Type             X           Y           Z
 ---------------------------------------------------------------------
      1          8           0        0.000000    0.000000    1.663329
      2          8           0        0.000000    0.000000    3.015709
      3          8           0        0.000000    0.000000   -3.015709
      4          8           0        0.000000    0.000000   -1.663329
 ---------------------------------------------------------------------

 SCF Done:  E(RHF) =  -298.904907805     A.U. after    8 cycles
 E2 =    -0.1242844283D+01 EUMP2 =    -0.30014775208844D+03
 CCSD(T)
 CCSD(T)= -0.30011875956D+03

 Unable to determine electronic state:  an orbital has unidentified symmetry.
 Alpha  occ. eigenvalues --  -20.18859 -20.18859 -20.16774 -20.16773  -1.00922
 Alpha  occ. eigenvalues --   -1.00866  -0.62955  -0.62594  -0.19386  -0.19287
 Alpha  occ. eigenvalues --   -0.16888  -0.15980  -0.13047  -0.12380   0.02157
 Alpha  occ. eigenvalues --    0.02394   0.20152
 Alpha virt. eigenvalues --    0.32829   0.72582   0.79679   1.08892   1.15668
 Alpha virt. eigenvalues --    1.16314   1.16921   1.17380   1.17592   1.18553
 Alpha virt. eigenvalues --    1.23798   1.25313   1.28266   1.29750   1.37222

 Mulliken charges:
               1
     1  O   -0.408199
     2  O   -0.591801
     3  O   -0.591801
     4  O   -0.408199
 Sum of Mulliken charges =  -2.00000

 Dipole moment (field-independent basis, Debye):
    X=             -0.0000    Y=              0.0000    Z=              0.0000  Tot=              0.0000
 Quadrupole moment (field-independent basis, Debye-Ang):
   XX=            -24.2921   YY=            -25.6785   ZZ=            -89.3328
   XY=              0.0000   XZ=              0.0000   YZ=              0.0000

 Normal termination of Gaussian 16 at Wed Jan  4 20:21:09 2023.
