 Gaussian 16, Revision A.03,
 Gaussian 16:  ES64L-G16RevA.03 25-Dec-2016

 -------------------------------------
 #p CCSD(T)/cc-pVTZ Guess=Read SCF=XQC
 -------------------------------------

 ---------
 O2_O2_217
 ---------
 Symbolic Z-matrix:
 Charge = -2 Multiplicity = 1

                         Standard orientation:
 ---------------------------------------------------------------------
 Center     Atomic      Atomic             Coordinates (Angstroms)
 Number     Number       Type             X           Y           Z
 ---------------------------------------------------------------------
      1          8           0        0.000000    0.000000    2.328781
      2          8           0        0.000000    0.000000    3.681162
      3          8           0        0.000000    0.000000   -3.681162
      4          8           0        0.000000    0.000000   -2.328781
 ---------------------------------------------------------------------

 SCF Done:  E(RHF) =  -298.911910536     A.U. after    8 cycles
 E2 =    -0.1347598702D+01 EUMP2 =    -0.30025950923757D+03
 CCSD(T)
 CCSD(T)= -0.30015278891D+03

 Unable to determine electronic state:  an orbital has unidentified symmetry.
 Alpha  occ. eigenvalues --  -20.20770 -20.20770 -20.19688 -20.19688  -1.03306
 Alpha  occ. eigenvalues --   -1.03300  -0.65312  -0.65263  -0.21743  -0.21739
 Alpha  occ. eigenvalues --   -0.19046  -0.18991  -0.15264  -0.15001  -0.00187
 Alpha  occ. eigenvalues --   -0.00178   0.19326
 Alpha virt. eigenvalues --    0.28545   0.72782   0.74002   1.12112   1.13478
 Alpha virt. eigenvalues --    1.14715   1.14761   1.15706   1.15751   1.16761
 Alpha virt. eigenvalues --    1.19031   1.23211   1.23370   1.24696   1.24852

 Mulliken charges:
               1
     1  O   -0.445193
     2  O   -0.554807
     3  O   -0.554807
     4  O   -0.445193
 Sum of Mulliken charges =  -2.00000

 Dipole moment (field-independent basis, Debye):
    X=             -0.0000    Y=             -0.0000    Z=             -0.0000  Tot=              0.0000
 Quadrupole moment (field-independent basis, Debye-Ang):
   XX=            -24.2351   YY=            -25.6628   ZZ=           -122.1429
   XY=              0.0000   XZ=              0.0000   YZ=              0.0000

 Normal termination of Gaussian 16 at Wed Jan  4 21:15:40 2023.
