 Gaussian 16, Revision A.03,
 Gaussian 16:  ES64L-G16RevA.03 25-Dec-2016

 -------------------------------------
 #p CCSD(T)/cc-pVTZ Guess=Read SCF=XQC
 -------------------------------------

 ---------
 O2_O2_212
 ---------
 Symbolic Z-matrix:
 Charge = -2 Multiplicity = 1

                         Standard orientation:
 ---------------------------------------------------------------------
 Center     Atomic      Atomic             Coordinates (Angstroms)
 Number     Number       Type             X           Y           Z
 ---------------------------------------------------------------------
      1          8           0        0.000000    0.000000    2.293385
      2          8           0        0.000000    0.000000    3.645765
      3          8           0        0.000000    0.000000   -3.645765
      4          8           0        0.000000    0.000000   -2.293385
 ---------------------------------------------------------------------

 SCF Done:  E(RHF) =  -298.911456750     A.U. after    8 cycles
 E2 =    -0.1342383420D+01 EUMP2 =    -0.30025384016997D+03
 CCSD(T)
 CCSD(T)= -0.30015137753D+03

 Unable to determine electronic state:  an orbital has unidentified symmetry.
 Alpha  occ. eigenvalues --  -20.20678 -20.20678 -20.19567 -20.19567  -1.03201
 Alpha  occ. eigenvalues --   -1.03194  -0.65205  -0.65152  -0.21638  -0.21634
 Alpha  occ. eigenvalues --   -0.18940  -0.18875  -0.15165  -0.14891  -0.00081
 Alpha  occ. eigenvalues --   -0.00070   0.19372
 Alpha virt. eigenvalues --    0.28716   0.72789   0.74217   1.12053   1.13646
 Alpha virt. eigenvalues --    1.14812   1.14869   1.15803   1.15858   1.16731
 Alpha virt. eigenvalues --    1.19467   1.23299   1.23498   1.24785   1.24981

 Mulliken charges:
               1
     1  O   -0.443870
     2  O   -0.556130
     3  O   -0.556130
     4  O   -0.443870
 Sum of Mulliken charges =  -2.00000

 Dipole moment (field-independent basis, Debye):
    X=             -0.0000    Y=              0.0000    Z=              0.0000  Tot=              0.0000
 Quadrupole moment (field-independent basis, Debye-Ang):
   XX=            -24.2360   YY=            -25.6634   ZZ=           -120.1696
   XY=              0.0000   XZ=              0.0000   YZ=              0.0000

 Normal termination of Gaussian 16 at Wed Jan  4 21:12:47 2023.
