 Gaussian 16, Revision A.03,
 Gaussian 16:  ES64L-G16RevA.03 25-Dec-2016

 -------------------------------------
 #p CCSD(T)/cc-pVTZ Guess=Read SCF=XQC
 -------------------------------------

 ---------
 O2_O2_109
 ---------
 Symbolic Z-matrix:
 Charge = -2 Multiplicity = 1

                         Standard orientation:
 ---------------------------------------------------------------------
 Center     Atomic      Atomic             Coordinates (Angstroms)
 Number     Number       Type             X           Y           Z
 ---------------------------------------------------------------------
      1          8           0        0.000000    0.000000    1.564218
      2          8           0        0.000000    0.000000    2.916598
      3          8           0        0.000000    0.000000   -2.916598
      4          8           0        0.000000    0.000000   -1.564218
 ---------------------------------------------------------------------

 SCF Done:  E(RHF) =  -298.904789142     A.U. after    9 cycles
 E2 =    -0.1225312039D+01 EUMP2 =    -0.30013010118049D+03
 CCSD(T)
 CCSD(T)= -0.30011178736D+03

 Unable to determine electronic state:  an orbital has unidentified symmetry.
 Alpha  occ. eigenvalues --  -20.18566 -20.18565 -20.16179 -20.16179  -1.00490
 Alpha  occ. eigenvalues --   -1.00404  -0.62566  -0.62030  -0.18968  -0.18812
 Alpha  occ. eigenvalues --   -0.16596  -0.15279  -0.12657  -0.11856   0.02562
 Alpha  occ. eigenvalues --    0.02918   0.20221
 Alpha virt. eigenvalues --    0.33762   0.73335   0.80617   1.10292   1.15751
 Alpha virt. eigenvalues --    1.16353   1.17271   1.17479   1.18181   1.19133
 Alpha virt. eigenvalues --    1.23634   1.25140   1.29842   1.31325   1.37627

 Mulliken charges:
               1
     1  O   -0.399006
     2  O   -0.600994
     3  O   -0.600994
     4  O   -0.399006
 Sum of Mulliken charges =  -2.00000

 Dipole moment (field-independent basis, Debye):
    X=             -0.0000    Y=             -0.0000    Z=              0.0000  Tot=              0.0000
 Quadrupole moment (field-independent basis, Debye-Ang):
   XX=            -24.3140   YY=            -25.6823   ZZ=            -85.2462
   XY=              0.0000   XZ=              0.0000   YZ=              0.0000

 Normal termination of Gaussian 16 at Wed Jan  4 20:13:31 2023.
