 Gaussian 16, Revision A.03,
 Gaussian 16:  ES64L-G16RevA.03 25-Dec-2016

 -------------------------------------
 #p CCSD(T)/cc-pVTZ Guess=Read SCF=XQC
 -------------------------------------

 --------
 O2_O2_95
 --------
 Symbolic Z-matrix:
 Charge = -2 Multiplicity = 1

                         Standard orientation:
 ---------------------------------------------------------------------
 Center     Atomic      Atomic             Coordinates (Angstroms)
 Number     Number       Type             X           Y           Z
 ---------------------------------------------------------------------
      1          8           0        0.000000    0.000000    1.465108
      2          8           0        0.000000    0.000000    2.817488
      3          8           0        0.000000    0.000000   -2.817488
      4          8           0        0.000000    0.000000   -1.465108
 ---------------------------------------------------------------------

 SCF Done:  E(RHF) =  -298.905207085     A.U. after    9 cycles
 E2 =    -0.1207093645D+01 EUMP2 =    -0.30011230072969D+03
 CCSD(T)
 CCSD(T)= -0.30010406972D+03

 Unable to determine electronic state:  an orbital has unidentified symmetry.
 Alpha  occ. eigenvalues --  -20.18278 -20.18277 -20.15519 -20.15519  -1.00039
 Alpha  occ. eigenvalues --   -0.99902  -0.62193  -0.61386  -0.18537  -0.18292
 Alpha  occ. eigenvalues --   -0.16353  -0.14452  -0.12255  -0.11278   0.02975
 Alpha  occ. eigenvalues --    0.03502   0.20249
 Alpha virt. eigenvalues --    0.34824   0.74381   0.81564   1.12885   1.15785
 Alpha virt. eigenvalues --    1.16296   1.17511   1.17763   1.18803   1.19742
 Alpha virt. eigenvalues --    1.23521   1.25003   1.31724   1.33207   1.37984

 Mulliken charges:
               1
     1  O   -0.388040
     2  O   -0.611960
     3  O   -0.611960
     4  O   -0.388040
 Sum of Mulliken charges =  -2.00000

 Dipole moment (field-independent basis, Debye):
    X=             -0.0000    Y=             -0.0000    Z=              0.0000  Tot=              0.0000
 Quadrupole moment (field-independent basis, Debye-Ang):
   XX=            -24.3412   YY=            -25.6866   ZZ=            -81.3773
   XY=              0.0000   XZ=              0.0000   YZ=              0.0000

 Normal termination of Gaussian 16 at Wed Jan  4 20:05:47 2023.
