 Gaussian 16, Revision A.03,
 Gaussian 16:  ES64L-G16RevA.03 25-Dec-2016

 ---------------------------------------------------------------
 #p ROCCSD(T)/cc-pVTZ Guess=Read SCF=(VeryTight,CDIIS,VShift=10)
 ---------------------------------------------------------------

 ---------
 O2_O2_106
 ---------
 Symbolic Z-matrix:
 Charge = -2 Multiplicity = 1

                         Standard orientation:
 ---------------------------------------------------------------------
 Center     Atomic      Atomic             Coordinates (Angstroms)
 Number     Number       Type             X           Y           Z
 ---------------------------------------------------------------------
      1          8           0        0.000000    0.000000    1.542981
      2          8           0        0.000000    0.000000    2.895361
      3          8           0        0.000000    0.000000   -2.895361
      4          8           0        0.000000    0.000000   -1.542981
 ---------------------------------------------------------------------

 SCF Done:  E(ROHF) =  -298.904829834     A.U. after    9 cycles
 E2 =    -0.1221466151D+01 EUMP2 =    -0.30012629598498D+03
 CCSD(T)
 CCSD(T)= -0.30011020104D+03

 Unable to determine electronic state:  an orbital has unidentified symmetry.
 Alpha  occ. eigenvalues --  -20.18504 -20.18503 -20.16044 -20.16044  -1.00395
 Alpha  occ. eigenvalues --   -1.00300  -0.62484  -0.61900  -0.18877  -0.18704
 Alpha  occ. eigenvalues --   -0.16538  -0.15114  -0.12571  -0.11737   0.02649
 Alpha  occ. eigenvalues --    0.03037   0.20231
 Alpha virt. eigenvalues --    0.33978   0.73539   0.80819   1.10746   1.15761
 Alpha virt. eigenvalues --    1.16349   1.17359   1.17490   1.18312   1.19261
 Alpha virt. eigenvalues --    1.23602   1.25104   1.30220   1.31704   1.37706

 Mulliken charges and spin densities:
               1          2
     1  O   -0.396820   0.000000
     2  O   -0.603180   0.000000
     3  O   -0.603180   0.000000
     4  O   -0.396820   0.000000
 Sum of Mulliken charges =  -2.00000   0.00000

 Dipole moment (field-independent basis, Debye):
    X=             -0.0000    Y=             -0.0000    Z=             -0.0000  Tot=              0.0000
 Quadrupole moment (field-independent basis, Debye-Ang):
   XX=            -24.3193   YY=            -25.6832   ZZ=            -84.3986
   XY=              0.0000   XZ=              0.0000   YZ=              0.0000

 CCSD(T)/cc-pVTZ Guess=Read SCF=(VeryTight,CDIIS,VShift=10)\\O2_O2_106\
 68\CCSD=-299.9890263\CCSD(T)=-300.110201\RMSD=2.099e-09\PG=D*H [C*(O1O
 Normal termination of Gaussian 16 at Sat Jan 14 19:29:48 2023.
