 Gaussian 16, Revision A.03,
 Gaussian 16:  ES64L-G16RevA.03 25-Dec-2016

 ---------------------------------------------------------------
 #p ROCCSD(T)/cc-pVTZ Guess=Read SCF=(VeryTight,CDIIS,VShift=10)
 ---------------------------------------------------------------

 --------
 O2_O2_73
 --------
 Symbolic Z-matrix:
 Charge = -2 Multiplicity = 1

                         Standard orientation:
 ---------------------------------------------------------------------
 Center     Atomic      Atomic             Coordinates (Angstroms)
 Number     Number       Type             X           Y           Z
 ---------------------------------------------------------------------
      1          8           0        0.000000    0.000000    1.309363
      2          8           0        0.000000    0.000000    2.661744
      3          8           0        0.000000    0.000000   -2.661744
      4          8           0        0.000000    0.000000   -1.309363
 ---------------------------------------------------------------------

 SCF Done:  E(ROHF) =  -298.907056130     A.U. after    9 cycles
 E2 =    -0.1177161671D+01 EUMP2 =    -0.30008421780112D+03
 CCSD(T)
 CCSD(T)= -0.30008994719D+03

 Unable to determine electronic state:  an orbital has unidentified symmetry.
 Alpha  occ. eigenvalues --  -20.17831 -20.17830 -20.14312 -20.14312  -0.99301
 Alpha  occ. eigenvalues --   -0.99009  -0.61713  -0.60137  -0.17850  -0.17354
 Alpha  occ. eigenvalues --   -0.16150  -0.12774  -0.11615  -0.10234   0.03631
 Alpha  occ. eigenvalues --    0.04582   0.20160
 Alpha virt. eigenvalues --    0.36826   0.76251   0.83149   1.15875   1.16172
 Alpha virt. eigenvalues --    1.17113   1.17584   1.19832   1.20747   1.21344
 Alpha virt. eigenvalues --    1.23665   1.25090   1.35157   1.36639   1.38491

 Mulliken charges and spin densities:
               1          2
     1  O   -0.366045   0.000000
     2  O   -0.633955   0.000000
     3  O   -0.633955   0.000000
     4  O   -0.366045   0.000000
 Sum of Mulliken charges =  -2.00000   0.00000

 Dipole moment (field-independent basis, Debye):
    X=             -0.0000    Y=             -0.0000    Z=              0.0000  Tot=              0.0000
 Quadrupole moment (field-independent basis, Debye-Ang):
   XX=            -24.3945   YY=            -25.6941   ZZ=            -75.7648
   XY=              0.0000   XZ=              0.0000   YZ=              0.0000

 CCSD(T)/cc-pVTZ Guess=Read SCF=(VeryTight,CDIIS,VShift=10)\\O2_O2_73\\
 145\CCSD=-299.9806372\CCSD(T)=-300.0899472\RMSD=3.520e-09\PG=D*H [C*(O
 Normal termination of Gaussian 16 at Sat Jan 14 18:47:51 2023.
