 Gaussian 16, Revision A.03,
 Gaussian 16:  ES64L-G16RevA.03 25-Dec-2016

 ---------------------------------------------------------------
 #p ROCCSD(T)/cc-pVTZ Guess=Read SCF=(VeryTight,CDIIS,VShift=10)
 ---------------------------------------------------------------

 --------
 O2_O2_65
 --------
 Symbolic Z-matrix:
 Charge = -2 Multiplicity = 1

                         Standard orientation:
 ---------------------------------------------------------------------
 Center     Atomic      Atomic             Coordinates (Angstroms)
 Number     Number       Type             X           Y           Z
 ---------------------------------------------------------------------
      1          8           0        0.000000    0.000000    1.252730
      2          8           0        0.000000    0.000000    2.605110
      3          8           0        0.000000    0.000000   -2.605110
      4          8           0        0.000000    0.000000   -1.252730
 ---------------------------------------------------------------------

 SCF Done:  E(ROHF) =  -298.907969995     A.U. after    9 cycles
 E2 =    -0.1165969820D+01 EUMP2 =    -0.30007393981541D+03
 CCSD(T)
 CCSD(T)= -0.30008395075D+03

 Unable to determine electronic state:  an orbital has unidentified symmetry.
 Alpha  occ. eigenvalues --  -20.17667 -20.17665 -20.13806 -20.13806  -0.99031
 Alpha  occ. eigenvalues --   -0.98641  -0.61605  -0.59582  -0.17605  -0.16965
 Alpha  occ. eigenvalues --   -0.16162  -0.11999  -0.11387  -0.09804   0.03868
 Alpha  occ. eigenvalues --    0.05040   0.20069
 Alpha virt. eigenvalues --    0.37682   0.76913   0.83779   1.15966   1.16210
 Alpha virt. eigenvalues --    1.17520   1.17702   1.20224   1.21126   1.23856
 Alpha virt. eigenvalues --    1.24655   1.25264   1.36473   1.37955   1.38655

 Mulliken charges and spin densities:
               1          2
     1  O   -0.356124   0.000000
     2  O   -0.643876   0.000000
     3  O   -0.643876   0.000000
     4  O   -0.356124   0.000000
 Sum of Mulliken charges =  -2.00000   0.00000

 Dipole moment (field-independent basis, Debye):
    X=             -0.0000    Y=             -0.0000    Z=             -0.0000  Tot=              0.0000
 Quadrupole moment (field-independent basis, Debye-Ang):
   XX=            -24.4163   YY=            -25.6967   ZZ=            -73.8795
   XY=              0.0000   XZ=              0.0000   YZ=              0.0000

 CCSD(T)/cc-pVTZ Guess=Read SCF=(VeryTight,CDIIS,VShift=10)\\O2_O2_65\\
 CCSD=-299.9783009\CCSD(T)=-300.0839507\RMSD=3.984e-09\PG=D*H [C*(O1O1.
 Normal termination of Gaussian 16 at Sat Jan 14 18:38:13 2023.
