 Gaussian 16, Revision A.03,
 Gaussian 16:  ES64L-G16RevA.03 25-Dec-2016

 ---------------------------------------------------------------
 #p ROCCSD(T)/cc-pVTZ Guess=Read SCF=(VeryTight,CDIIS,VShift=10)
 ---------------------------------------------------------------

 --------
 O2_O2_44
 --------
 Symbolic Z-matrix:
 Charge = -2 Multiplicity = 1

                         Standard orientation:
 ---------------------------------------------------------------------
 Center     Atomic      Atomic             Coordinates (Angstroms)
 Number     Number       Type             X           Y           Z
 ---------------------------------------------------------------------
      1          8           0        0.000000    0.000000    1.104065
      2          8           0        0.000000    0.000000    2.456445
      3          8           0        0.000000    0.000000   -2.456445
      4          8           0        0.000000    0.000000   -1.104065
 ---------------------------------------------------------------------

 SCF Done:  E(ROHF) =  -298.909258111     A.U. after    9 cycles
 E2 =    -0.1136480645D+01 EUMP2 =    -0.30004573875591D+03
 CCSD(T)
 CCSD(T)= -0.30006425381D+03

 Unable to determine electronic state:  an orbital has unidentified symmetry.
 Alpha  occ. eigenvalues --  -20.17197 -20.17194 -20.12246 -20.12246  -0.98368
 Alpha  occ. eigenvalues --   -0.97516  -0.61688  -0.57744  -0.17037  -0.16536
 Alpha  occ. eigenvalues --   -0.15766  -0.10845  -0.09294  -0.08500   0.04462
 Alpha  occ. eigenvalues --    0.06476   0.19599
 Alpha virt. eigenvalues --    0.40358   0.78498   0.85672   1.16411   1.16843
 Alpha virt. eigenvalues --    1.17885   1.18527   1.21317   1.22176   1.24794
 Alpha virt. eigenvalues --    1.26201   1.35302   1.39002   1.39829   1.40519

 Mulliken charges and spin densities:
               1          2
     1  O   -0.322899  -0.000000
     2  O   -0.677101   0.000000
     3  O   -0.677101   0.000000
     4  O   -0.322899  -0.000000
 Sum of Mulliken charges =  -2.00000   0.00000

 Dipole moment (field-independent basis, Debye):
    X=             -0.0000    Y=              0.0000    Z=              0.0000  Tot=              0.0000
 Quadrupole moment (field-independent basis, Debye-Ang):
   XX=            -24.4719   YY=            -25.6989   ZZ=            -69.4075
   XY=              0.0000   XZ=              0.0000   YZ=              0.0000

 CCSD(T)/cc-pVTZ Guess=Read SCF=(VeryTight,CDIIS,VShift=10)\\O2_O2_44\\
 462\CCSD=-299.9697269\CCSD(T)=-300.0642538\RMSD=5.860e-09\PG=D*H [C*(O
 Normal termination of Gaussian 16 at Sat Jan 14 18:13:04 2023.
