 Gaussian 16, Revision A.03,
 Gaussian 16:  ES64L-G16RevA.03 25-Dec-2016

 -------------------------------------
 #p CCSD(T)/cc-pVTZ Guess=Read SCF=XQC
 -------------------------------------

 --------
 O2_O2_60
 --------
 Symbolic Z-matrix:
 Charge = -2 Multiplicity = 1

                         Standard orientation:
 ---------------------------------------------------------------------
 Center     Atomic      Atomic             Coordinates (Angstroms)
 Number     Number       Type             X           Y           Z
 ---------------------------------------------------------------------
      1          8           0        0.000000    0.000000    1.217333
      2          8           0        0.000000    0.000000    2.569713
      3          8           0        0.000000    0.000000   -2.569713
      4          8           0        0.000000    0.000000   -1.217333
 ---------------------------------------------------------------------

 SCF Done:  E(RHF) =  -298.908520856     A.U. after    9 cycles
 E2 =    -0.1158930160D+01 EUMP2 =    -0.30006745101516D+03
 CCSD(T)
 CCSD(T)= -0.30007986963D+03

 Unable to determine electronic state:  an orbital has unidentified symmetry.
 Alpha  occ. eigenvalues --  -20.17561 -20.17559 -20.13468 -20.13468  -0.98864
 Alpha  occ. eigenvalues --   -0.98396  -0.61567  -0.59200  -0.17458  -0.16705
 Alpha  occ. eigenvalues --   -0.16201  -0.11454  -0.11249  -0.09518   0.04013
 Alpha  occ. eigenvalues --    0.05348   0.19990
 Alpha virt. eigenvalues --    0.38259   0.77311   0.84195   1.16045   1.16282
 Alpha virt. eigenvalues --    1.17663   1.17824   1.20474   1.21367   1.24019
 Alpha virt. eigenvalues --    1.25420   1.27035   1.37293   1.38750   1.38775

 Mulliken charges:
               1
     1  O   -0.349237
     2  O   -0.650763
     3  O   -0.650763
     4  O   -0.349237
 Sum of Mulliken charges =  -2.00000

 Dipole moment (field-independent basis, Debye):
    X=             -0.0000    Y=              0.0000    Z=             -0.0000  Tot=              0.0000
 Quadrupole moment (field-independent basis, Debye-Ang):
   XX=            -24.4302   YY=            -25.6981   ZZ=            -72.7484
   XY=              0.0000   XZ=              0.0000   YZ=              0.0000

 Normal termination of Gaussian 16 at Wed Jan  4 19:45:48 2023.
