 Gaussian 16, Revision A.03,
 Gaussian 16:  ES64L-G16RevA.03 25-Dec-2016

 -------------------------------------
 #p CCSD(T)/cc-pVTZ Guess=Read SCF=XQC
 -------------------------------------

 --------
 O2_O2_13
 --------
 Symbolic Z-matrix:
 Charge = -2 Multiplicity = 1

                         Standard orientation:
 ---------------------------------------------------------------------
 Center     Atomic      Atomic             Coordinates (Angstroms)
 Number     Number       Type             X           Y           Z
 ---------------------------------------------------------------------
      1          8           0        0.000000    0.000000    0.884606
      2          8           0        0.000000    0.000000    2.236987
      3          8           0        0.000000    0.000000   -2.236987
      4          8           0        0.000000    0.000000   -0.884606
 ---------------------------------------------------------------------

 SCF Done:  E(RHF) =  -298.885750312     A.U. after   10 cycles
 E2 =    -0.1098585585D+01 EUMP2 =    -0.29998433589682D+03
 CCSD(T)
 CCSD(T)= -0.30000617691D+03

 Unable to determine electronic state:  an orbital has unidentified symmetry.
 Alpha  occ. eigenvalues --  -20.16320 -20.16314 -20.08937 -20.08937  -0.98178
 Alpha  occ. eigenvalues --   -0.95162  -0.64192  -0.53368  -0.18396  -0.17018
 Alpha  occ. eigenvalues --   -0.13255  -0.10673  -0.05889  -0.01843   0.05179
 Alpha  occ. eigenvalues --    0.09567   0.17897
 Alpha virt. eigenvalues --    0.45884   0.80362   0.89824   1.17809   1.17905
 Alpha virt. eigenvalues --    1.19142   1.20872   1.23284   1.24053   1.27720
 Alpha virt. eigenvalues --    1.29288   1.39043   1.39385   1.43981   1.45522

 Mulliken charges:
               1
     1  O   -0.247639
     2  O   -0.752361
     3  O   -0.752361
     4  O   -0.247639
 Sum of Mulliken charges =  -2.00000

 Dipole moment (field-independent basis, Debye):
    X=             -0.0000    Y=              0.0000    Z=             -0.0000  Tot=              0.0000
 Quadrupole moment (field-independent basis, Debye-Ang):
   XX=            -24.4766   YY=            -25.6404   ZZ=            -64.5680
   XY=              0.0000   XZ=              0.0000   YZ=              0.0000

 Normal termination of Gaussian 16 at Wed Jan  4 19:19:40 2023.
