 Gaussian 16, Revision A.03,
 Gaussian 16:  ES64L-G16RevA.03 25-Dec-2016

 -------------------------------------
 #p CCSD(T)/cc-pVTZ Guess=Read SCF=XQC
 -------------------------------------

 --------
 O2_O2_49
 --------
 Symbolic Z-matrix:
 Charge = -2 Multiplicity = 1

                         Standard orientation:
 ---------------------------------------------------------------------
 Center     Atomic      Atomic             Coordinates (Angstroms)
 Number     Number       Type             X           Y           Z
 ---------------------------------------------------------------------
      1          8           0        0.000000    0.000000    1.139461
      2          8           0        0.000000    0.000000    2.491841
      3          8           0        0.000000    0.000000   -2.491841
      4          8           0        0.000000    0.000000   -1.139461
 ---------------------------------------------------------------------

 SCF Done:  E(RHF) =  -298.909316346     A.U. after    9 cycles
 E2 =    -0.1143447365D+01 EUMP2 =    -0.30005276371075D+03
 CCSD(T)
 CCSD(T)= -0.30006965557D+03

 Unable to determine electronic state:  an orbital has unidentified symmetry.
 Alpha  occ. eigenvalues --  -20.17316 -20.17314 -20.12654 -20.12654  -0.98513
 Alpha  occ. eigenvalues --   -0.97809  -0.61601  -0.58242  -0.17156  -0.16393
 Alpha  occ. eigenvalues --   -0.16079  -0.10962  -0.10049  -0.08836   0.04325
 Alpha  occ. eigenvalues --    0.06098   0.19747
 Alpha virt. eigenvalues --    0.39657   0.78140   0.85182   1.16279   1.16608
 Alpha virt. eigenvalues --    1.17841   1.18252   1.21045   1.21917   1.24507
 Alpha virt. eigenvalues --    1.25907   1.32726   1.38934   1.39057   1.40193

 Mulliken charges:
               1
     1  O   -0.331885
     2  O   -0.668115
     3  O   -0.668115
     4  O   -0.331885
 Sum of Mulliken charges =  -2.00000

 Dipole moment (field-independent basis, Debye):
    X=             -0.0000    Y=              0.0000    Z=              0.0000  Tot=              0.0000
 Quadrupole moment (field-independent basis, Debye-Ang):
   XX=            -24.4598   YY=            -25.6996   ZZ=            -70.4022
   XY=              0.0000   XZ=              0.0000   YZ=              0.0000

 Normal termination of Gaussian 16 at Wed Jan  4 19:39:17 2023.
