 Gaussian 16, Revision A.03,
 Gaussian 16:  ES64L-G16RevA.03 25-Dec-2016

 ---------------------------------------------------------------
 #p ROCCSD(T)/cc-pVTZ Guess=Read SCF=(VeryTight,CDIIS,VShift=10)
 ---------------------------------------------------------------

 --------
 O2_O2_17
 --------
 Symbolic Z-matrix:
 Charge = -2 Multiplicity = 1

                         Standard orientation:
 ---------------------------------------------------------------------
 Center     Atomic      Atomic             Coordinates (Angstroms)
 Number     Number       Type             X           Y           Z
 ---------------------------------------------------------------------
      1          8           0        0.000000    0.000000    0.912923
      2          8           0        0.000000    0.000000    2.265304
      3          8           0        0.000000    0.000000   -2.265304
      4          8           0        0.000000    0.000000   -0.912923
 ---------------------------------------------------------------------

 SCF Done:  E(ROHF) =  -298.893055541     A.U. after   10 cycles
 E2 =    -0.1102470688D+01 EUMP2 =    -0.29999552622868D+03
 CCSD(T)
 CCSD(T)= -0.30001766972D+03

 Unable to determine electronic state:  an orbital has unidentified symmetry.
 Alpha  occ. eigenvalues --  -20.16437 -20.16432 -20.09464 -20.09464  -0.98062
 Alpha  occ. eigenvalues --   -0.95530  -0.63588  -0.54086  -0.18059  -0.16891
 Alpha  occ. eigenvalues --   -0.13646  -0.10593  -0.06289  -0.03185   0.05100
 Alpha  occ. eigenvalues --    0.09079   0.18209
 Alpha virt. eigenvalues --    0.45040   0.80183   0.89127   1.17534   1.17946
 Alpha virt. eigenvalues --    1.18829   1.20579   1.22993   1.23775   1.27216
 Alpha virt. eigenvalues --    1.28764   1.39090   1.39499   1.43520   1.45049

 Mulliken charges and spin densities:
               1          2
     1  O   -0.259998   0.000000
     2  O   -0.740002   0.000000
     3  O   -0.740002   0.000000
     4  O   -0.259998   0.000000
 Sum of Mulliken charges =  -2.00000   0.00000

 Dipole moment (field-independent basis, Debye):
    X=             -0.0000    Y=              0.0000    Z=              0.0000  Tot=              0.0000
 Quadrupole moment (field-independent basis, Debye-Ang):
   XX=            -24.4875   YY=            -25.6567   ZZ=            -65.0320
   XY=              0.0000   XZ=              0.0000   YZ=              0.0000

 CCSD(T)/cc-pVTZ Guess=Read SCF=(VeryTight,CDIIS,VShift=10)\\O2_O2_17\\
 69\CCSD=-299.9393323\CCSD(T)=-300.0176697\RMSD=1.679e-09\PG=D*H [C*(O1
 Normal termination of Gaussian 16 at Sat Jan 14 17:39:54 2023.
