 Gaussian 16, Revision A.03,
 Gaussian 16:  ES64L-G16RevA.03 25-Dec-2016

 -------------------------------------
 #p CCSD(T)/cc-pVTZ Guess=Read SCF=XQC
 -------------------------------------

 --------
 O2_O2_37
 --------
 Symbolic Z-matrix:
 Charge = -2 Multiplicity = 1

                         Standard orientation:
 ---------------------------------------------------------------------
 Center     Atomic      Atomic             Coordinates (Angstroms)
 Number     Number       Type             X           Y           Z
 ---------------------------------------------------------------------
      1          8           0        0.000000    0.000000    1.054510
      2          8           0        0.000000    0.000000    2.406890
      3          8           0        0.000000    0.000000   -2.406890
      4          8           0        0.000000    0.000000   -1.054510
 ---------------------------------------------------------------------

 SCF Done:  E(RHF) =  -298.908325467     A.U. after    9 cycles
 E2 =    -0.1126910504D+01 EUMP2 =    -0.30003523597092D+03
 CCSD(T)
 CCSD(T)= -0.30005555726D+03

 Unable to determine electronic state:  an orbital has unidentified symmetry.
 Alpha  occ. eigenvalues --  -20.17018 -20.17015 -20.11629 -20.11628  -0.98189
 Alpha  occ. eigenvalues --   -0.97072  -0.61912  -0.56965  -0.16899  -0.16805
 Alpha  occ. eigenvalues --   -0.15292  -0.10703  -0.08083  -0.07996   0.04645
 Alpha  occ. eigenvalues --    0.07052   0.19342
 Alpha virt. eigenvalues --    0.41419   0.78980   0.86417   1.16625   1.17262
 Alpha virt. eigenvalues --    1.17924   1.18991   1.21713   1.22555   1.25271
 Alpha virt. eigenvalues --    1.26700   1.38191   1.39077   1.40870   1.41607

 Mulliken charges:
               1
     1  O   -0.309096
     2  O   -0.690904
     3  O   -0.690904
     4  O   -0.309096
 Sum of Mulliken charges =  -2.00000

 Dipole moment (field-independent basis, Debye):
    X=             -0.0000    Y=              0.0000    Z=             -0.0000  Tot=              0.0000
 Quadrupole moment (field-independent basis, Debye-Ang):
   XX=            -24.4858   YY=            -25.6955   ZZ=            -68.0998
   XY=              0.0000   XZ=              0.0000   YZ=              0.0000

 Normal termination of Gaussian 16 at Wed Jan  4 19:32:14 2023.
