 Gaussian 16, Revision A.03,
 Gaussian 16:  ES64L-G16RevA.03 25-Dec-2016

 -------------------------------------
 #p CCSD(T)/cc-pVTZ Guess=Read SCF=XQC
 -------------------------------------

 ---------
 O2_O2_154
 ---------
 Symbolic Z-matrix:
 Charge = -2 Multiplicity = 1

                         Standard orientation:
 ---------------------------------------------------------------------
 Center     Atomic      Atomic             Coordinates (Angstroms)
 Number     Number       Type             X           Y           Z
 ---------------------------------------------------------------------
      1          8           0        0.000000    0.000000    1.882787
      2          8           0        0.000000    0.000000    3.235167
      3          8           0        0.000000    0.000000   -3.235167
      4          8           0        0.000000    0.000000   -1.882787
 ---------------------------------------------------------------------

 SCF Done:  E(RHF) =  -298.906485229     A.U. after    8 cycles
 E2 =    -0.1279452073D+01 EUMP2 =    -0.30018593730283D+03
 CCSD(T)
 CCSD(T)= -0.30013207098D+03

 Unable to determine electronic state:  an orbital has unidentified symmetry.
 Alpha  occ. eigenvalues --  -20.19515 -20.19515 -20.17909 -20.17909  -1.01806
 Alpha  occ. eigenvalues --   -1.01783  -0.63806  -0.63642  -0.20253  -0.20218
 Alpha  occ. eigenvalues --   -0.17612  -0.17221  -0.13859  -0.13392   0.01306
 Alpha  occ. eigenvalues --    0.01397   0.19915
 Alpha virt. eigenvalues --    0.31107   0.72175   0.77583   1.09158   1.15244
 Alpha virt. eigenvalues --    1.15930   1.16439   1.16449   1.16938   1.17415
 Alpha virt. eigenvalues --    1.23978   1.25483   1.25799   1.27283   1.31146

 Mulliken charges:
               1
     1  O   -0.424081
     2  O   -0.575919
     3  O   -0.575919
     4  O   -0.424081
 Sum of Mulliken charges =  -2.00000

 Dipole moment (field-independent basis, Debye):
    X=             -0.0000    Y=              0.0000    Z=              0.0000  Tot=              0.0000
 Quadrupole moment (field-independent basis, Debye-Ang):
   XX=            -24.2598   YY=            -25.6717   ZZ=            -99.1356
   XY=              0.0000   XZ=              0.0000   YZ=              0.0000

 Normal termination of Gaussian 16 at Wed Jan  4 20:38:57 2023.
