 Gaussian 16, Revision A.03,
 Gaussian 16:  ES64L-G16RevA.03 25-Dec-2016

 -------------------------------------
 #p CCSD(T)/cc-pVTZ Guess=Read SCF=XQC
 -------------------------------------

 ---------
 O2_O2_241
 ---------
 Symbolic Z-matrix:
 Charge = -2 Multiplicity = 1

                         Standard orientation:
 ---------------------------------------------------------------------
 Center     Atomic      Atomic             Coordinates (Angstroms)
 Number     Number       Type             X           Y           Z
 ---------------------------------------------------------------------
      1          8           0        0.000000    0.000000    2.498685
      2          8           0        0.000000    0.000000    3.851065
      3          8           0        0.000000    0.000000   -3.851065
      4          8           0        0.000000    0.000000   -2.498685
 ---------------------------------------------------------------------

 SCF Done:  E(RHF) =  -298.914036252     A.U. after    8 cycles
 E2 =    -0.1372360308D+01 EUMP2 =    -0.30028639655978D+03
 CCSD(T)
 CCSD(T)= -0.30015911671D+03

 Unable to determine electronic state:  an orbital has unidentified symmetry.
 Alpha  occ. eigenvalues --  -20.21192 -20.21192 -20.20232 -20.20232  -1.03782
 Alpha  occ. eigenvalues --   -1.03778  -0.65795  -0.65758  -0.22218  -0.22217
 Alpha  occ. eigenvalues --   -0.19529  -0.19505  -0.15717  -0.15497  -0.00667
 Alpha  occ. eigenvalues --   -0.00664   0.19113
 Alpha virt. eigenvalues --    0.27782   0.72617   0.73143   1.12118   1.12726
 Alpha virt. eigenvalues --    1.14267   1.14282   1.15258   1.15274   1.16735
 Alpha virt. eigenvalues --    1.17587   1.22777   1.22829   1.24260   1.24311

 Mulliken charges:
               1
     1  O   -0.450944
     2  O   -0.549056
     3  O   -0.549056
     4  O   -0.450944
 Sum of Mulliken charges =  -2.00000

 Dipole moment (field-independent basis, Debye):
    X=             -0.0000    Y=              0.0000    Z=             -0.0000  Tot=              0.0000
 Quadrupole moment (field-independent basis, Debye-Ang):
   XX=            -24.2319   YY=            -25.6607   ZZ=           -131.9656
   XY=              0.0000   XZ=              0.0000   YZ=              0.0000

 Normal termination of Gaussian 16 at Wed Jan  4 21:29:35 2023.
