 Gaussian 16, Revision A.03,
 Gaussian 16:  ES64L-G16RevA.03 25-Dec-2016

 -------------------------------------
 #p CCSD(T)/cc-pVTZ Guess=Read SCF=XQC
 -------------------------------------

 ---------
 O2_O2_206
 ---------
 Symbolic Z-matrix:
 Charge = -2 Multiplicity = 1

                         Standard orientation:
 ---------------------------------------------------------------------
 Center     Atomic      Atomic             Coordinates (Angstroms)
 Number     Number       Type             X           Y           Z
 ---------------------------------------------------------------------
      1          8           0        0.000000    0.000000    2.250910
      2          8           0        0.000000    0.000000    3.603290
      3          8           0        0.000000    0.000000   -3.603290
      4          8           0        0.000000    0.000000   -2.250910
 ---------------------------------------------------------------------

 SCF Done:  E(RHF) =  -298.910910034     A.U. after    8 cycles
 E2 =    -0.1336093181D+01 EUMP2 =    -0.30024700321549D+03
 CCSD(T)
 CCSD(T)= -0.30014963827D+03

 Unable to determine electronic state:  an orbital has unidentified symmetry.
 Alpha  occ. eigenvalues --  -20.20565 -20.20565 -20.19417 -20.19417  -1.03071
 Alpha  occ. eigenvalues --   -1.03064  -0.65074  -0.65016  -0.21508  -0.21503
 Alpha  occ. eigenvalues --   -0.18811  -0.18731  -0.15042  -0.14755   0.00050
 Alpha  occ. eigenvalues --    0.00063   0.19428
 Alpha virt. eigenvalues --    0.28927   0.72781   0.74492   1.11944   1.13846
 Alpha virt. eigenvalues --    1.14930   1.15003   1.15921   1.15992   1.16680
 Alpha virt. eigenvalues --    1.20075   1.23404   1.23660   1.24891   1.25143

 Mulliken charges:
               1
     1  O   -0.442219
     2  O   -0.557781
     3  O   -0.557781
     4  O   -0.442219
 Sum of Mulliken charges =  -2.00000

 Dipole moment (field-independent basis, Debye):
    X=             -0.0000    Y=              0.0000    Z=              0.0000  Tot=              0.0000
 Quadrupole moment (field-independent basis, Debye-Ang):
   XX=            -24.2373   YY=            -25.6640   ZZ=           -117.8349
   XY=              0.0000   XZ=              0.0000   YZ=              0.0000

 Normal termination of Gaussian 16 at Wed Jan  4 21:09:19 2023.
