 Gaussian 16, Revision A.03,
 Gaussian 16:  ES64L-G16RevA.03 25-Dec-2016

 ---------------------------------------------------------------
 #p ROCCSD(T)/cc-pVTZ Guess=Read SCF=(VeryTight,CDIIS,VShift=10)
 ---------------------------------------------------------------

 ---------
 O2_O2_273
 ---------
 Symbolic Z-matrix:
 Charge = -2 Multiplicity = 1

                         Standard orientation:
 ---------------------------------------------------------------------
 Center     Atomic      Atomic             Coordinates (Angstroms)
 Number     Number       Type             X           Y           Z
 ---------------------------------------------------------------------
      1          8           0        0.000000    0.000000    2.725222
      2          8           0        0.000000    0.000000    4.077602
      3          8           0        0.000000    0.000000   -4.077602
      4          8           0        0.000000    0.000000   -2.725222
 ---------------------------------------------------------------------

 SCF Done:  E(ROHF) =  -298.916663912     A.U. after    8 cycles
 E2 =    -0.1404898280D+01 EUMP2 =    -0.30032156219197D+03
 CCSD(T)
 CCSD(T)= -0.30016655318D+03

 Unable to determine electronic state:  an orbital has unidentified symmetry.
 Alpha  occ. eigenvalues --  -20.21699 -20.21699 -20.20868 -20.20868  -1.04347
 Alpha  occ. eigenvalues --   -1.04344  -0.66368  -0.66340  -0.22782  -0.22782
 Alpha  occ. eigenvalues --   -0.20107  -0.20100  -0.16257  -0.16080  -0.01238
 Alpha  occ. eigenvalues --   -0.01237   0.18852
 Alpha virt. eigenvalues --    0.26893   0.72195   0.72335   1.11776   1.11945
 Alpha virt. eigenvalues --    1.13722   1.13725   1.14715   1.14719   1.16360
 Alpha virt. eigenvalues --    1.16553   1.22223   1.22233   1.23704   1.23714

 Mulliken charges and spin densities:
               1          2
     1  O   -0.457315  -0.000000
     2  O   -0.542685  -0.000000
     3  O   -0.542685  -0.000000
     4  O   -0.457315  -0.000000
 Sum of Mulliken charges =  -2.00000  -0.00000

 Dipole moment (field-independent basis, Debye):
    X=             -0.0000    Y=             -0.0000    Z=              0.0000  Tot=              0.0000
 Quadrupole moment (field-independent basis, Debye-Ang):
   XX=            -24.2292   YY=            -25.6586   ZZ=           -145.9634
   XY=              0.0000   XZ=              0.0000   YZ=              0.0000

 CCSD(T)/cc-pVTZ Guess=Read SCF=(VeryTight,CDIIS,VShift=10)\\O2_O2_273\
 1093\CCSD=-300.0230146\CCSD(T)=-300.1665532\RMSD=3.331e-09\PG=D*H [C*(
 Normal termination of Gaussian 16 at Sat Jan 14 23:11:23 2023.
