 Gaussian 16, Revision A.03,
 Gaussian 16:  ES64L-G16RevA.03 25-Dec-2016

 -------------------------------------
 #p CCSD(T)/cc-pVTZ Guess=Read SCF=XQC
 -------------------------------------

 ---------
 O2_O2_285
 ---------
 Symbolic Z-matrix:
 Charge = -2 Multiplicity = 1

                         Standard orientation:
 ---------------------------------------------------------------------
 Center     Atomic      Atomic             Coordinates (Angstroms)
 Number     Number       Type             X           Y           Z
 ---------------------------------------------------------------------
      1          8           0        0.000000    0.000000    2.810173
      2          8           0        0.000000    0.000000    4.162554
      3          8           0        0.000000    0.000000   -4.162554
      4          8           0        0.000000    0.000000   -2.810173
 ---------------------------------------------------------------------

 SCF Done:  E(RHF) =  -298.917579764     A.U. after    8 cycles
 E2 =    -0.1417009387D+01 EUMP2 =    -0.30033458915118D+03
 CCSD(T)
 CCSD(T)= -0.30016908888D+03

 Unable to determine electronic state:  an orbital has unidentified symmetry.
 Alpha  occ. eigenvalues --  -20.21874 -20.21874 -20.21084 -20.21084  -1.04540
 Alpha  occ. eigenvalues --   -1.04537  -0.66564  -0.66539  -0.22975  -0.22975
 Alpha  occ. eigenvalues --   -0.20306  -0.20301  -0.16443  -0.16279  -0.01433
 Alpha  occ. eigenvalues --   -0.01432   0.18761
 Alpha virt. eigenvalues --    0.26591   0.72015   0.72096   1.11611   1.11711
 Alpha virt. eigenvalues --    1.13534   1.13536   1.14528   1.14530   1.16175
 Alpha virt. eigenvalues --    1.16281   1.22029   1.22034   1.23510   1.23515

 Mulliken charges:
               1
     1  O   -0.459389
     2  O   -0.540611
     3  O   -0.540611
     4  O   -0.459389
 Sum of Mulliken charges =  -2.00000

 Dipole moment (field-independent basis, Debye):
    X=             -0.0000    Y=              0.0000    Z=             -0.0000  Tot=              0.0000
 Quadrupole moment (field-independent basis, Debye-Ang):
   XX=            -24.2285   YY=            -25.6579   ZZ=           -151.4770
   XY=              0.0000   XZ=              0.0000   YZ=              0.0000

 Normal termination of Gaussian 16 at Wed Jan  4 21:55:40 2023.
