 Gaussian 16, Revision A.03,
 Gaussian 16:  ES64L-G16RevA.03 25-Dec-2016

 -------------------------------------
 #p CCSD(T)/cc-pVTZ Guess=Read SCF=XQC
 -------------------------------------

 ---------
 O2_O2_107
 ---------
 Symbolic Z-matrix:
 Charge = -2 Multiplicity = 1

                         Standard orientation:
 ---------------------------------------------------------------------
 Center     Atomic      Atomic             Coordinates (Angstroms)
 Number     Number       Type             X           Y           Z
 ---------------------------------------------------------------------
      1          8           0        0.000000    0.000000    1.550060
      2          8           0        0.000000    0.000000    2.902440
      3          8           0        0.000000    0.000000   -2.902440
      4          8           0        0.000000    0.000000   -1.550060
 ---------------------------------------------------------------------

 SCF Done:  E(RHF) =  -298.904813447     A.U. after    9 cycles
 E2 =    -0.1222751614D+01 EUMP2 =    -0.30012756506084D+03
 CCSD(T)
 CCSD(T)= -0.30011073369D+03

 Unable to determine electronic state:  an orbital has unidentified symmetry.
 Alpha  occ. eigenvalues --  -20.18525 -20.18524 -20.16089 -20.16089  -1.00427
 Alpha  occ. eigenvalues --   -1.00335  -0.62511  -0.61944  -0.18907  -0.18740
 Alpha  occ. eigenvalues --   -0.16557  -0.15170  -0.12600  -0.11777   0.02620
 Alpha  occ. eigenvalues --    0.02997   0.20228
 Alpha virt. eigenvalues --    0.33905   0.73470   0.80751   1.10588   1.15758
 Alpha virt. eigenvalues --    1.16351   1.17329   1.17487   1.18268   1.19218
 Alpha virt. eigenvalues --    1.23612   1.25116   1.30092   1.31576   1.37680

 Mulliken charges:
               1
     1  O   -0.397558
     2  O   -0.602442
     3  O   -0.602442
     4  O   -0.397558
 Sum of Mulliken charges =  -2.00000

 Dipole moment (field-independent basis, Debye):
    X=             -0.0000    Y=             -0.0000    Z=              0.0000  Tot=              0.0000
 Quadrupole moment (field-independent basis, Debye-Ang):
   XX=            -24.3175   YY=            -25.6829   ZZ=            -84.6800
   XY=              0.0000   XZ=              0.0000   YZ=              0.0000

 Normal termination of Gaussian 16 at Wed Jan  4 20:12:26 2023.
