 Gaussian 16, Revision A.03,
 Gaussian 16:  ES64L-G16RevA.03 25-Dec-2016

 ---------------------------------------------------------------
 #p ROCCSD(T)/cc-pVTZ Guess=Read SCF=(VeryTight,CDIIS,VShift=10)
 ---------------------------------------------------------------

 -------
 O2_O2_5
 -------
 Symbolic Z-matrix:
 Charge = -2 Multiplicity = 1

                         Standard orientation:
 ---------------------------------------------------------------------
 Center     Atomic      Atomic             Coordinates (Angstroms)
 Number     Number       Type             X           Y           Z
 ---------------------------------------------------------------------
      1          8           0        0.000000    0.000000    0.827972
      2          8           0        0.000000    0.000000    2.180352
      3          8           0        0.000000    0.000000   -2.180352
      4          8           0        0.000000    0.000000   -0.827972
 ---------------------------------------------------------------------

 SCF Done:  E(ROHF) =  -298.863592521     A.U. after   10 cycles
 E2 =    -0.1092645406D+01 EUMP2 =    -0.29995623792774D+03
 CCSD(T)
 CCSD(T)= -0.29997665964D+03

 Unable to determine electronic state:  an orbital has unidentified symmetry.
 Alpha  occ. eigenvalues --  -20.16127 -20.16119 -20.07759 -20.07759  -0.98712
 Alpha  occ. eigenvalues --   -0.94356  -0.65768  -0.51766  -0.19140  -0.17513
 Alpha  occ. eigenvalues --   -0.12398  -0.11033  -0.05016   0.01354   0.05330
 Alpha  occ. eigenvalues --    0.10640   0.17180
 Alpha virt. eigenvalues --    0.47698   0.80594   0.91452   1.17700   1.18517
 Alpha virt. eigenvalues --    1.19673   1.21340   1.23912   1.24656   1.28836
 Alpha virt. eigenvalues --    1.30408   1.38898   1.38972   1.44815   1.46390

 Mulliken charges and spin densities:
               1          2
     1  O   -0.218942   0.000000
     2  O   -0.781058   0.000000
     3  O   -0.781058   0.000000
     4  O   -0.218942   0.000000
 Sum of Mulliken charges =  -2.00000   0.00000

 Dipole moment (field-independent basis, Debye):
    X=             -0.0000    Y=              0.0000    Z=              0.0000  Tot=              0.0000
 Quadrupole moment (field-independent basis, Debye-Ang):
   XX=            -24.4377   YY=            -25.5950   ZZ=            -63.8381
   XY=              0.0000   XZ=              0.0000   YZ=              0.0000

 CCSD(T)/cc-pVTZ Guess=Read SCF=(VeryTight,CDIIS,VShift=10)\\O2_O2_5\\-
 2\CCSD=-299.9047626\CCSD(T)=-299.9766596\RMSD=5.312e-09\PG=D*H [C*(O1O
 Normal termination of Gaussian 16 at Sat Jan 14 17:25:53 2023.
