 Gaussian 16, Revision A.03,
 Gaussian 16:  ES64L-G16RevA.03 25-Dec-2016

 ---------------------------------------------------------------
 #p ROCCSD(T)/cc-pVTZ Guess=Read SCF=(VeryTight,CDIIS,VShift=10)
 ---------------------------------------------------------------

 -------
 O2_O2_7
 -------
 Symbolic Z-matrix:
 Charge = -2 Multiplicity = 1

                         Standard orientation:
 ---------------------------------------------------------------------
 Center     Atomic      Atomic             Coordinates (Angstroms)
 Number     Number       Type             X           Y           Z
 ---------------------------------------------------------------------
      1          8           0        0.000000    0.000000    0.842130
      2          8           0        0.000000    0.000000    2.194511
      3          8           0        0.000000    0.000000   -2.194511
      4          8           0        0.000000    0.000000   -0.842130
 ---------------------------------------------------------------------

 SCF Done:  E(ROHF) =  -298.870249277     A.U. after   10 cycles
 E2 =    -0.1093856505D+01 EUMP2 =    -0.29996410578177D+03
 CCSD(T)
 CCSD(T)= -0.29998499251D+03

 Unable to determine electronic state:  an orbital has unidentified symmetry.
 Alpha  occ. eigenvalues --  -20.16167 -20.16160 -20.08071 -20.08071  -0.98530
 Alpha  occ. eigenvalues --   -0.94566  -0.65325  -0.52188  -0.18946  -0.17352
 Alpha  occ. eigenvalues --   -0.12622  -0.10911  -0.05244   0.00483   0.05292
 Alpha  occ. eigenvalues --    0.10359   0.17371
 Alpha virt. eigenvalues --    0.47228   0.80555   0.91012   1.17770   1.18317
 Alpha virt. eigenvalues --    1.19556   1.21242   1.23749   1.24499   1.28545
 Alpha virt. eigenvalues --    1.30121   1.38939   1.39098   1.44618   1.46184

 Mulliken charges and spin densities:
               1          2
     1  O   -0.226677  -0.000000
     2  O   -0.773323  -0.000000
     3  O   -0.773323  -0.000000
     4  O   -0.226677  -0.000000
 Sum of Mulliken charges =  -2.00000  -0.00000

 Dipole moment (field-independent basis, Debye):
    X=             -0.0000    Y=              0.0000    Z=              0.0000  Tot=              0.0000
 Quadrupole moment (field-independent basis, Debye-Ang):
   XX=            -24.4498   YY=            -25.6082   ZZ=            -63.9932
   XY=              0.0000   XZ=              0.0000   YZ=              0.0000

 CCSD(T)/cc-pVTZ Guess=Read SCF=(VeryTight,CDIIS,VShift=10)\\O2_O2_7\\-
 03\CCSD=-299.9121231\CCSD(T)=-299.9849925\RMSD=5.215e-09\PG=D*H [C*(O1
 Normal termination of Gaussian 16 at Sat Jan 14 17:28:10 2023.
