 Gaussian 16, Revision A.03,
 Gaussian 16:  ES64L-G16RevA.03 25-Dec-2016

 -------------------------------------
 #p CCSD(T)/cc-pVTZ Guess=Read SCF=XQC
 -------------------------------------

 ---------
 O2_O2_108
 ---------
 Symbolic Z-matrix:
 Charge = -2 Multiplicity = 1

                         Standard orientation:
 ---------------------------------------------------------------------
 Center     Atomic      Atomic             Coordinates (Angstroms)
 Number     Number       Type             X           Y           Z
 ---------------------------------------------------------------------
      1          8           0        0.000000    0.000000    1.557139
      2          8           0        0.000000    0.000000    2.909519
      3          8           0        0.000000    0.000000   -2.909519
      4          8           0        0.000000    0.000000   -1.557139
 ---------------------------------------------------------------------

 SCF Done:  E(RHF) =  -298.904799896     A.U. after    9 cycles
 E2 =    -0.1224033635D+01 EUMP2 =    -0.30012883353108D+03
 CCSD(T)
 CCSD(T)= -0.30011126246D+03

 Unable to determine electronic state:  an orbital has unidentified symmetry.
 Alpha  occ. eigenvalues --  -20.18545 -20.18544 -20.16134 -20.16134  -1.00459
 Alpha  occ. eigenvalues --   -1.00369  -0.62539  -0.61987  -0.18938  -0.18776
 Alpha  occ. eigenvalues --   -0.16576  -0.15225  -0.12628  -0.11816   0.02591
 Alpha  occ. eigenvalues --    0.02957   0.20225
 Alpha virt. eigenvalues --    0.33834   0.73402   0.80684   1.10437   1.15754
 Alpha virt. eigenvalues --    1.16352   1.17300   1.17483   1.18225   1.19175
 Alpha virt. eigenvalues --    1.23623   1.25128   1.29966   1.31450   1.37653

 Mulliken charges:
               1
     1  O   -0.398286
     2  O   -0.601714
     3  O   -0.601714
     4  O   -0.398286
 Sum of Mulliken charges =  -2.00000

 Dipole moment (field-independent basis, Debye):
    X=             -0.0000    Y=              0.0000    Z=             -0.0000  Tot=              0.0000
 Quadrupole moment (field-independent basis, Debye-Ang):
   XX=            -24.3157   YY=            -25.6826   ZZ=            -84.9625
   XY=              0.0000   XZ=              0.0000   YZ=              0.0000

 Normal termination of Gaussian 16 at Wed Jan  4 20:12:59 2023.
