 Gaussian 16, Revision A.03,
 Gaussian 16:  ES64L-G16RevA.03 25-Dec-2016

 -------------------------------------
 #p CCSD(T)/cc-pVTZ Guess=Read SCF=XQC
 -------------------------------------

 ---------
 O2_O2_270
 ---------
 Symbolic Z-matrix:
 Charge = -2 Multiplicity = 1

                         Standard orientation:
 ---------------------------------------------------------------------
 Center     Atomic      Atomic             Coordinates (Angstroms)
 Number     Number       Type             X           Y           Z
 ---------------------------------------------------------------------
      1          8           0        0.000000    0.000000    2.703984
      2          8           0        0.000000    0.000000    4.056364
      3          8           0        0.000000    0.000000   -4.056364
      4          8           0        0.000000    0.000000   -2.703984
 ---------------------------------------------------------------------

 SCF Done:  E(RHF) =  -298.916428977     A.U. after    8 cycles
 E2 =    -0.1401864058D+01 EUMP2 =    -0.30031829303579D+03
 CCSD(T)
 CCSD(T)= -0.30016589895D+03

 Unable to determine electronic state:  an orbital has unidentified symmetry.
 Alpha  occ. eigenvalues --  -20.21654 -20.21654 -20.20812 -20.20812  -1.04297
 Alpha  occ. eigenvalues --   -1.04294  -0.66317  -0.66289  -0.22732  -0.22732
 Alpha  occ. eigenvalues --   -0.20056  -0.20048  -0.16210  -0.16029  -0.01187
 Alpha  occ. eigenvalues --   -0.01186   0.18875
 Alpha virt. eigenvalues --    0.26971   0.72239   0.72400   1.11815   1.12008
 Alpha virt. eigenvalues --    1.13771   1.13774   1.14763   1.14768   1.16404
 Alpha virt. eigenvalues --    1.16628   1.22272   1.22285   1.23754   1.23766

 Mulliken charges:
               1
     1  O   -0.456771
     2  O   -0.543229
     3  O   -0.543229
     4  O   -0.456771
 Sum of Mulliken charges =  -2.00000

 Dipole moment (field-independent basis, Debye):
    X=             -0.0000    Y=              0.0000    Z=             -0.0000  Tot=              0.0000
 Quadrupole moment (field-independent basis, Debye-Ang):
   XX=            -24.2294   YY=            -25.6587   ZZ=           -144.6075
   XY=              0.0000   XZ=              0.0000   YZ=              0.0000

 Normal termination of Gaussian 16 at Wed Jan  4 21:46:37 2023.
