 Gaussian 16, Revision A.03,
 Gaussian 16:  ES64L-G16RevA.03 25-Dec-2016

 ---------------------------------------------------------------
 #p ROCCSD(T)/cc-pVTZ Guess=Read SCF=(VeryTight,CDIIS,VShift=10)
 ---------------------------------------------------------------

 --------
 O2_O2_52
 --------
 Symbolic Z-matrix:
 Charge = -2 Multiplicity = 1

                         Standard orientation:
 ---------------------------------------------------------------------
 Center     Atomic      Atomic             Coordinates (Angstroms)
 Number     Number       Type             X           Y           Z
 ---------------------------------------------------------------------
      1          8           0        0.000000    0.000000    1.160699
      2          8           0        0.000000    0.000000    2.513079
      3          8           0        0.000000    0.000000   -2.513079
      4          8           0        0.000000    0.000000   -1.160699
 ---------------------------------------------------------------------

 SCF Done:  E(ROHF) =  -298.909193433     A.U. after    9 cycles
 E2 =    -0.1147657625D+01 EUMP2 =    -0.30005685105795D+03
 CCSD(T)
 CCSD(T)= -0.30007264228D+03

 Unable to determine electronic state:  an orbital has unidentified symmetry.
 Alpha  occ. eigenvalues --  -20.17385 -20.17383 -20.12887 -20.12887  -0.98606
 Alpha  occ. eigenvalues --   -0.97977  -0.61573  -0.58521  -0.17234  -0.16325
 Alpha  occ. eigenvalues --   -0.16258  -0.11037  -0.10464  -0.09030   0.04242
 Alpha  occ. eigenvalues --    0.05883   0.19824
 Alpha virt. eigenvalues --    0.39257   0.77920   0.84901   1.16207   1.16494
 Alpha virt. eigenvalues --    1.17806   1.18112   1.20886   1.21764   1.24356
 Alpha virt. eigenvalues --    1.25753   1.31144   1.38583   1.38888   1.40050

 Mulliken charges and spin densities:
               1          2
     1  O   -0.336939   0.000000
     2  O   -0.663061   0.000000
     3  O   -0.663061   0.000000
     4  O   -0.336939   0.000000
 Sum of Mulliken charges =  -2.00000   0.00000

 Dipole moment (field-independent basis, Debye):
    X=             -0.0000    Y=              0.0000    Z=              0.0000  Tot=              0.0000
 Quadrupole moment (field-independent basis, Debye-Ang):
   XX=            -24.4520   YY=            -25.6995   ZZ=            -71.0215
   XY=              0.0000   XZ=              0.0000   YZ=              0.0000

 CCSD(T)/cc-pVTZ Guess=Read SCF=(VeryTight,CDIIS,VShift=10)\\O2_O2_52\\
 456\CCSD=-299.9736339\CCSD(T)=-300.0726423\RMSD=3.724e-09\PG=D*H [C*(O
 Normal termination of Gaussian 16 at Sat Jan 14 18:22:29 2023.
