 Gaussian 16, Revision A.03,
 Gaussian 16:  ES64L-G16RevA.03 25-Dec-2016

 -------------------------------------
 #p CCSD(T)/cc-pVTZ Guess=Read SCF=XQC
 -------------------------------------

 --------
 O2_O2_94
 --------
 Symbolic Z-matrix:
 Charge = -2 Multiplicity = 1

                         Standard orientation:
 ---------------------------------------------------------------------
 Center     Atomic      Atomic             Coordinates (Angstroms)
 Number     Number       Type             X           Y           Z
 ---------------------------------------------------------------------
      1          8           0        0.000000    0.000000    1.458029
      2          8           0        0.000000    0.000000    2.810409
      3          8           0        0.000000    0.000000   -2.810409
      4          8           0        0.000000    0.000000   -1.458029
 ---------------------------------------------------------------------

 SCF Done:  E(RHF) =  -298.905259968     A.U. after    9 cycles
 E2 =    -0.1205766295D+01 EUMP2 =    -0.30011102626238D+03
 CCSD(T)
 CCSD(T)= -0.30010348585D+03

 Unable to determine electronic state:  an orbital has unidentified symmetry.
 Alpha  occ. eigenvalues --  -20.18258 -20.18256 -20.15469 -20.15469  -1.00006
 Alpha  occ. eigenvalues --   -0.99865  -0.62168  -0.61336  -0.18506  -0.18253
 Alpha  occ. eigenvalues --   -0.16338  -0.14387  -0.12226  -0.11234   0.03005
 Alpha  occ. eigenvalues --    0.03546   0.20249
 Alpha virt. eigenvalues --    0.34905   0.74463   0.81633   1.13113   1.15787
 Alpha virt. eigenvalues --    1.16290   1.17512   1.17810   1.18848   1.19787
 Alpha virt. eigenvalues --    1.23517   1.24997   1.31869   1.33352   1.38009

 Mulliken charges:
               1
     1  O   -0.387177
     2  O   -0.612823
     3  O   -0.612823
     4  O   -0.387177
 Sum of Mulliken charges =  -2.00000

 Dipole moment (field-independent basis, Debye):
    X=             -0.0000    Y=             -0.0000    Z=             -0.0000  Tot=              0.0000
 Quadrupole moment (field-independent basis, Debye-Ang):
   XX=            -24.3433   YY=            -25.6869   ZZ=            -81.1095
   XY=              0.0000   XZ=              0.0000   YZ=              0.0000

 8616\MP4DQ=-299.9334621\MP4SDQ=-299.9609939\CCSD=-299.98607\CCSD(T)=-3
 Normal termination of Gaussian 16 at Wed Jan  4 20:05:13 2023.
