 Gaussian 16, Revision A.03,
 Gaussian 16:  ES64L-G16RevA.03 25-Dec-2016

 -------------------------------------
 #p CCSD(T)/cc-pVTZ Guess=Read SCF=XQC
 -------------------------------------

 ---------
 O2_O2_239
 ---------
 Symbolic Z-matrix:
 Charge = -2 Multiplicity = 1

                         Standard orientation:
 ---------------------------------------------------------------------
 Center     Atomic      Atomic             Coordinates (Angstroms)
 Number     Number       Type             X           Y           Z
 ---------------------------------------------------------------------
      1          8           0        0.000000    0.000000    2.484526
      2          8           0        0.000000    0.000000    3.836906
      3          8           0        0.000000    0.000000   -3.836906
      4          8           0        0.000000    0.000000   -2.484526
 ---------------------------------------------------------------------

 SCF Done:  E(RHF) =  -298.913863494     A.U. after    8 cycles
 E2 =    -0.1370311234D+01 EUMP2 =    -0.30028417472853D+03
 CCSD(T)
 CCSD(T)= -0.30015861578D+03

 Unable to determine electronic state:  an orbital has unidentified symmetry.
 Alpha  occ. eigenvalues --  -20.21158 -20.21158 -20.20189 -20.20189  -1.03744
 Alpha  occ. eigenvalues --   -1.03740  -0.65757  -0.65719  -0.22180  -0.22179
 Alpha  occ. eigenvalues --   -0.19490  -0.19464  -0.15681  -0.15458  -0.00629
 Alpha  occ. eigenvalues --   -0.00626   0.19130
 Alpha virt. eigenvalues --    0.27842   0.72638   0.73205   1.12130   1.12783
 Alpha virt. eigenvalues --    1.14303   1.14320   1.15294   1.15311   1.16748
 Alpha virt. eigenvalues --    1.17677   1.22813   1.22870   1.24296   1.24352

 Mulliken charges:
               1
     1  O   -0.450499
     2  O   -0.549501
     3  O   -0.549501
     4  O   -0.450499
 Sum of Mulliken charges =  -2.00000

 Dipole moment (field-independent basis, Debye):
    X=             -0.0000    Y=              0.0000    Z=              0.0000  Tot=              0.0000
 Quadrupole moment (field-independent basis, Debye-Ang):
   XX=            -24.2321   YY=            -25.6609   ZZ=           -131.1249
   XY=              0.0000   XZ=              0.0000   YZ=              0.0000

 Normal termination of Gaussian 16 at Wed Jan  4 21:28:22 2023.
