 Gaussian 16, Revision A.03,
 Gaussian 16:  ES64L-G16RevA.03 25-Dec-2016

 -------------------------------------
 #p CCSD(T)/cc-pVTZ Guess=Read SCF=XQC
 -------------------------------------

 --------
 O2_O2_68
 --------
 Symbolic Z-matrix:
 Charge = -2 Multiplicity = 1

                         Standard orientation:
 ---------------------------------------------------------------------
 Center     Atomic      Atomic             Coordinates (Angstroms)
 Number     Number       Type             X           Y           Z
 ---------------------------------------------------------------------
      1          8           0        0.000000    0.000000    1.273967
      2          8           0        0.000000    0.000000    2.626348
      3          8           0        0.000000    0.000000   -2.626348
      4          8           0        0.000000    0.000000   -1.273967
 ---------------------------------------------------------------------

 SCF Done:  E(RHF) =  -298.907624783     A.U. after    9 cycles
 E2 =    -0.1170179950D+01 EUMP2 =    -0.30007780473272D+03
 CCSD(T)
 CCSD(T)= -0.30008626899D+03

 Unable to determine electronic state:  an orbital has unidentified symmetry.
 Alpha  occ. eigenvalues --  -20.17729 -20.17727 -20.14001 -20.14001  -0.99132
 Alpha  occ. eigenvalues --   -0.98782  -0.61639  -0.59798  -0.17696  -0.17114
 Alpha  occ. eigenvalues --   -0.16151  -0.12302  -0.11472  -0.09969   0.03779
 Alpha  occ. eigenvalues --    0.04864   0.20107
 Alpha virt. eigenvalues --    0.37352   0.76669   0.83538   1.15927   1.16186
 Alpha virt. eigenvalues --    1.17403   1.17648   1.20076   1.20982   1.23329
 Alpha virt. eigenvalues --    1.23775   1.25189   1.35979   1.37461   1.38595

 Mulliken charges:
               1
     1  O   -0.359992
     2  O   -0.640008
     3  O   -0.640008
     4  O   -0.359992
 Sum of Mulliken charges =  -2.00000

 Dipole moment (field-independent basis, Debye):
    X=             -0.0000    Y=             -0.0000    Z=              0.0000  Tot=              0.0000
 Quadrupole moment (field-independent basis, Debye-Ang):
   XX=            -24.4080   YY=            -25.6958   ZZ=            -74.5760
   XY=              0.0000   XZ=              0.0000   YZ=              0.0000

 Normal termination of Gaussian 16 at Wed Jan  4 19:50:32 2023.
