 Gaussian 16, Revision A.03,
 Gaussian 16:  ES64L-G16RevA.03 25-Dec-2016

 -------------------------------------
 #p CCSD(T)/cc-pVTZ Guess=Read SCF=XQC
 -------------------------------------

 --------
 O2_O2_26
 --------
 Symbolic Z-matrix:
 Charge = -2 Multiplicity = 1

                         Standard orientation:
 ---------------------------------------------------------------------
 Center     Atomic      Atomic             Coordinates (Angstroms)
 Number     Number       Type             X           Y           Z
 ---------------------------------------------------------------------
      1          8           0        0.000000    0.000000    0.976637
      2          8           0        0.000000    0.000000    2.329017
      3          8           0        0.000000    0.000000   -2.329017
      4          8           0        0.000000    0.000000   -0.976637
 ---------------------------------------------------------------------

 SCF Done:  E(RHF) =  -298.903238578     A.U. after    9 cycles
 E2 =    -0.1112696447D+01 EUMP2 =    -0.30001593502542D+03
 CCSD(T)
 CCSD(T)= -0.30003790808D+03

 Unable to determine electronic state:  an orbital has unidentified symmetry.
 Alpha  occ. eigenvalues --  -20.16708 -20.16705 -20.10523 -20.10523  -0.98016
 Alpha  occ. eigenvalues --   -0.96280  -0.62597  -0.55518  -0.17403  -0.16796
 Alpha  occ. eigenvalues --   -0.14447  -0.10566  -0.07112  -0.05708   0.04909
 Alpha  occ. eigenvalues --    0.08089   0.18801
 Alpha virt. eigenvalues --    0.43293   0.79687   0.87774   1.17051   1.17961
 Alpha virt. eigenvalues --    1.18090   1.19854   1.22384   1.23195   1.26225
 Alpha virt. eigenvalues --    1.27715   1.39129   1.39496   1.42394   1.43900

 Mulliken charges:
               1
     1  O   -0.284222
     2  O   -0.715778
     3  O   -0.715778
     4  O   -0.284222
 Sum of Mulliken charges =  -2.00000

 Dipole moment (field-independent basis, Debye):
    X=             -0.0000    Y=              0.0000    Z=              0.0000  Tot=              0.0000
 Quadrupole moment (field-independent basis, Debye-Ang):
   XX=            -24.4961   YY=            -25.6812   ZZ=            -66.2743
   XY=              0.0000   XZ=              0.0000   YZ=              0.0000

 Normal termination of Gaussian 16 at Wed Jan  4 19:26:29 2023.
