 Gaussian 16, Revision A.03,
 Gaussian 16:  ES64L-G16RevA.03 25-Dec-2016

 ---------------------------------------------------------------
 #p ROCCSD(T)/cc-pVTZ Guess=Read SCF=(VeryTight,CDIIS,VShift=10)
 ---------------------------------------------------------------

 --------
 O2_O2_55
 --------
 Symbolic Z-matrix:
 Charge = -2 Multiplicity = 1

                         Standard orientation:
 ---------------------------------------------------------------------
 Center     Atomic      Atomic             Coordinates (Angstroms)
 Number     Number       Type             X           Y           Z
 ---------------------------------------------------------------------
      1          8           0        0.000000    0.000000    1.181937
      2          8           0        0.000000    0.000000    2.534317
      3          8           0        0.000000    0.000000   -2.534317
      4          8           0        0.000000    0.000000   -1.181937
 ---------------------------------------------------------------------

 SCF Done:  E(ROHF) =  -298.908987487     A.U. after    9 cycles
 E2 =    -0.1151880911D+01 EUMP2 =    -0.30006086839789D+03
 CCSD(T)
 CCSD(T)= -0.30007546755D+03

 Unable to determine electronic state:  an orbital has unidentified symmetry.
 Alpha  occ. eigenvalues --  -20.17452 -20.17450 -20.13111 -20.13111  -0.98701
 Alpha  occ. eigenvalues --   -0.98138  -0.61560  -0.58786  -0.17316  -0.16430
 Alpha  occ. eigenvalues --   -0.16269  -0.11114  -0.10854  -0.09217   0.04157
 Alpha  occ. eigenvalues --    0.05676   0.19893
 Alpha virt. eigenvalues --    0.38871   0.77696   0.84630   1.16141   1.16399
 Alpha virt. eigenvalues --    1.17762   1.17989   1.20730   1.21614   1.24218
 Alpha virt. eigenvalues --    1.25615   1.29573   1.38104   1.38838   1.39587

 Mulliken charges and spin densities:
               1          2
     1  O   -0.341746   0.000000
     2  O   -0.658254   0.000000
     3  O   -0.658254   0.000000
     4  O   -0.341746   0.000000
 Sum of Mulliken charges =  -2.00000   0.00000

 Dipole moment (field-independent basis, Debye):
    X=             -0.0000    Y=             -0.0000    Z=              0.0000  Tot=              0.0000
 Quadrupole moment (field-independent basis, Debye-Ang):
   XX=            -24.4440   YY=            -25.6991   ZZ=            -71.6566
   XY=              0.0000   XZ=              0.0000   YZ=              0.0000

 CCSD(T)/cc-pVTZ Guess=Read SCF=(VeryTight,CDIIS,VShift=10)\\O2_O2_55\\
 478\CCSD=-299.9748524\CCSD(T)=-300.0754675\RMSD=4.604e-09\PG=D*H [C*(O
 Normal termination of Gaussian 16 at Sat Jan 14 18:26:03 2023.
