 Gaussian 16, Revision A.03,
 Gaussian 16:  ES64L-G16RevA.03 25-Dec-2016

 ---------------------------------------------------------------
 #p ROCCSD(T)/cc-pVTZ Guess=Read SCF=(VeryTight,CDIIS,VShift=10)
 ---------------------------------------------------------------

 ---------
 O2_O2_112
 ---------
 Symbolic Z-matrix:
 Charge = -2 Multiplicity = 1

                         Standard orientation:
 ---------------------------------------------------------------------
 Center     Atomic      Atomic             Coordinates (Angstroms)
 Number     Number       Type             X           Y           Z
 ---------------------------------------------------------------------
      1          8           0        0.000000    0.000000    1.585456
      2          8           0        0.000000    0.000000    2.937836
      3          8           0        0.000000    0.000000   -2.937836
      4          8           0        0.000000    0.000000   -1.585456
 ---------------------------------------------------------------------

 SCF Done:  E(ROHF) =  -298.904773240     A.U. after    9 cycles
 E2 =    -0.1229126299D+01 EUMP2 =    -0.30013389953865D+03
 CCSD(T)
 CCSD(T)= -0.30011334018D+03

 Unable to determine electronic state:  an orbital has unidentified symmetry.
 Alpha  occ. eigenvalues --  -20.18629 -20.18628 -20.16312 -20.16312  -1.00585
 Alpha  occ. eigenvalues --   -1.00506  -0.62649  -0.62157  -0.19059  -0.18917
 Alpha  occ. eigenvalues --   -0.16655  -0.15439  -0.12741  -0.11972   0.02474
 Alpha  occ. eigenvalues --    0.02801   0.20210
 Alpha virt. eigenvalues --    0.33552   0.73145   0.80416   1.09893   1.15738
 Alpha virt. eigenvalues --    1.16354   1.17188   1.17464   1.18052   1.19006
 Alpha virt. eigenvalues --    1.23668   1.25177   1.29478   1.30961   1.37546

 Mulliken charges and spin densities:
               1          2
     1  O   -0.401110   0.000000
     2  O   -0.598890   0.000000
     3  O   -0.598890   0.000000
     4  O   -0.401110   0.000000
 Sum of Mulliken charges =  -2.00000   0.00000

 Dipole moment (field-independent basis, Debye):
    X=             -0.0000    Y=              0.0000    Z=             -0.0000  Tot=              0.0000
 Quadrupole moment (field-independent basis, Debye-Ang):
   XX=            -24.3088   YY=            -25.6815   ZZ=            -86.1038
   XY=              0.0000   XZ=              0.0000   YZ=              0.0000

 CCSD(T)/cc-pVTZ Guess=Read SCF=(VeryTight,CDIIS,VShift=10)\\O2_O2_112\
 0958\CCSD=-299.990491\CCSD(T)=-300.1133402\RMSD=1.929e-09\PG=D*H [C*(O
 Normal termination of Gaussian 16 at Sat Jan 14 19:37:27 2023.
