 Gaussian 16, Revision A.03,
 Gaussian 16:  ES64L-G16RevA.03 25-Dec-2016

 -------------------------------------
 #p CCSD(T)/cc-pVTZ Guess=Read SCF=XQC
 -------------------------------------

 ---------
 O2_O2_282
 ---------
 Symbolic Z-matrix:
 Charge = -2 Multiplicity = 1

                         Standard orientation:
 ---------------------------------------------------------------------
 Center     Atomic      Atomic             Coordinates (Angstroms)
 Number     Number       Type             X           Y           Z
 ---------------------------------------------------------------------
      1          8           0        0.000000    0.000000    2.788936
      2          8           0        0.000000    0.000000    4.141316
      3          8           0        0.000000    0.000000   -4.141316
      4          8           0        0.000000    0.000000   -2.788936
 ---------------------------------------------------------------------

 SCF Done:  E(RHF) =  -298.917354363     A.U. after    8 cycles
 E2 =    -0.1413985206D+01 EUMP2 =    -0.30033133956861D+03
 CCSD(T)
 CCSD(T)= -0.30016846551D+03

 Unable to determine electronic state:  an orbital has unidentified symmetry.
 Alpha  occ. eigenvalues --  -20.21831 -20.21831 -20.21031 -20.21031  -1.04492
 Alpha  occ. eigenvalues --   -1.04490  -0.66516  -0.66490  -0.22928  -0.22928
 Alpha  occ. eigenvalues --   -0.20257  -0.20252  -0.16398  -0.16231  -0.01385
 Alpha  occ. eigenvalues --   -0.01384   0.18783
 Alpha virt. eigenvalues --    0.26665   0.72060   0.72154   1.11653   1.11767
 Alpha virt. eigenvalues --    1.13580   1.13582   1.14574   1.14576   1.16222
 Alpha virt. eigenvalues --    1.16345   1.22076   1.22083   1.23557   1.23564

 Mulliken charges:
               1
     1  O   -0.458885
     2  O   -0.541115
     3  O   -0.541115
     4  O   -0.458885
 Sum of Mulliken charges =  -2.00000

 Dipole moment (field-independent basis, Debye):
    X=             -0.0000    Y=              0.0000    Z=              0.0000  Tot=              0.0000
 Quadrupole moment (field-independent basis, Debye-Ang):
   XX=            -24.2286   YY=            -25.6581   ZZ=           -150.0851
   XY=              0.0000   XZ=              0.0000   YZ=              0.0000

 Normal termination of Gaussian 16 at Wed Jan  4 21:53:42 2023.
