 Gaussian 16, Revision A.03,
 Gaussian 16:  ES64L-G16RevA.03 25-Dec-2016

 -------------------------------------
 #p CCSD(T)/cc-pVTZ Guess=Read SCF=XQC
 -------------------------------------

 ---------
 O2_O2_164
 ---------
 Symbolic Z-matrix:
 Charge = -2 Multiplicity = 1

                         Standard orientation:
 ---------------------------------------------------------------------
 Center     Atomic      Atomic             Coordinates (Angstroms)
 Number     Number       Type             X           Y           Z
 ---------------------------------------------------------------------
      1          8           0        0.000000    0.000000    1.953579
      2          8           0        0.000000    0.000000    3.305959
      3          8           0        0.000000    0.000000   -3.305959
      4          8           0        0.000000    0.000000   -1.953579
 ---------------------------------------------------------------------

 SCF Done:  E(RHF) =  -298.907235952     A.U. after    8 cycles
 E2 =    -0.1290722054D+01 EUMP2 =    -0.30019795800653D+03
 CCSD(T)
 CCSD(T)= -0.30013584899D+03

 Unable to determine electronic state:  an orbital has unidentified symmetry.
 Alpha  occ. eigenvalues --  -20.19725 -20.19724 -20.18232 -20.18232  -1.02070
 Alpha  occ. eigenvalues --   -1.02052  -0.64068  -0.63938  -0.20514  -0.20489
 Alpha  occ. eigenvalues --   -0.17850  -0.17556  -0.14103  -0.13683   0.01047
 Alpha  occ. eigenvalues --    0.01112   0.19824
 Alpha virt. eigenvalues --    0.30630   0.72298   0.76918   1.09800   1.15039
 Alpha virt. eigenvalues --    1.15753   1.16118   1.16398   1.16754   1.17097
 Alpha virt. eigenvalues --    1.23940   1.25243   1.25441   1.26727   1.28049

 Mulliken charges:
               1
     1  O   -0.428232
     2  O   -0.571768
     3  O   -0.571768
     4  O   -0.428232
 Sum of Mulliken charges =  -2.00000

 Dipole moment (field-independent basis, Debye):
    X=             -0.0000    Y=              0.0000    Z=             -0.0000  Tot=              0.0000
 Quadrupole moment (field-independent basis, Debye-Ang):
   XX=            -24.2532   YY=            -25.6699   ZZ=           -102.5154
   XY=              0.0000   XZ=              0.0000   YZ=              0.0000

 7978\MP4DQ=-299.7978979\MP4SDQ=-299.8299684\CCSD=-300.0026772\CCSD(T)=
 Normal termination of Gaussian 16 at Wed Jan  4 20:44:34 2023.
