 Gaussian 16, Revision A.03,
 Gaussian 16:  ES64L-G16RevA.03 25-Dec-2016

 ---------------------------------------------------------------
 #p ROCCSD(T)/cc-pVTZ Guess=Read SCF=(VeryTight,CDIIS,VShift=10)
 ---------------------------------------------------------------

 --------
 O2_O2_88
 --------
 Symbolic Z-matrix:
 Charge = -2 Multiplicity = 1

                         Standard orientation:
 ---------------------------------------------------------------------
 Center     Atomic      Atomic             Coordinates (Angstroms)
 Number     Number       Type             X           Y           Z
 ---------------------------------------------------------------------
      1          8           0        0.000000    0.000000    1.415553
      2          8           0        0.000000    0.000000    2.767933
      3          8           0        0.000000    0.000000   -2.767933
      4          8           0        0.000000    0.000000   -1.415553
 ---------------------------------------------------------------------

 SCF Done:  E(ROHF) =  -298.905643649     A.U. after    9 cycles
 E2 =    -0.1197731341D+01 EUMP2 =    -0.30010337499008D+03
 CCSD(T)
 CCSD(T)= -0.30009987940D+03

 Unable to determine electronic state:  an orbital has unidentified symmetry.
 Alpha  occ. eigenvalues --  -20.18136 -20.18134 -20.15160 -20.15160  -0.99807
 Alpha  occ. eigenvalues --   -0.99634  -0.62021  -0.61025  -0.18318  -0.18011
 Alpha  occ. eigenvalues --   -0.16259  -0.13976  -0.12052  -0.10966   0.03184
 Alpha  occ. eigenvalues --    0.03821   0.20242
 Alpha virt. eigenvalues --    0.35412   0.74967   0.82051   1.14551   1.15799
 Alpha virt. eigenvalues --    1.16246   1.17517   1.18183   1.19124   1.20056
 Alpha virt. eigenvalues --    1.23513   1.24979   1.32766   1.34249   1.38153

 Mulliken charges and spin densities:
               1          2
     1  O   -0.381750   0.000000
     2  O   -0.618250   0.000000
     3  O   -0.618250   0.000000
     4  O   -0.381750   0.000000
 Sum of Mulliken charges =  -2.00000   0.00000

 Dipole moment (field-independent basis, Debye):
    X=             -0.0000    Y=              0.0000    Z=              0.0000  Tot=              0.0000
 Quadrupole moment (field-independent basis, Debye-Ang):
   XX=            -24.3568   YY=            -25.6889   ZZ=            -79.5274
   XY=              0.0000   XZ=              0.0000   YZ=              0.0000

 CCSD(T)/cc-pVTZ Guess=Read SCF=(VeryTight,CDIIS,VShift=10)\\O2_O2_88\\
 7\CCSD=-299.984569\CCSD(T)=-300.0998794\RMSD=2.754e-09\PG=D*H [C*(O1O1
 Normal termination of Gaussian 16 at Sat Jan 14 19:07:20 2023.
