 Gaussian 16, Revision A.03,
 Gaussian 16:  ES64L-G16RevA.03 25-Dec-2016

 -------------------------------------
 #p CCSD(T)/cc-pVTZ Guess=Read SCF=XQC
 -------------------------------------

 --------
 O2_O2_72
 --------
 Symbolic Z-matrix:
 Charge = -2 Multiplicity = 1

                         Standard orientation:
 ---------------------------------------------------------------------
 Center     Atomic      Atomic             Coordinates (Angstroms)
 Number     Number       Type             X           Y           Z
 ---------------------------------------------------------------------
      1          8           0        0.000000    0.000000    1.302285
      2          8           0        0.000000    0.000000    2.654665
      3          8           0        0.000000    0.000000   -2.654665
      4          8           0        0.000000    0.000000   -1.302285
 ---------------------------------------------------------------------

 SCF Done:  E(RHF) =  -298.907167857     A.U. after    9 cycles
 E2 =    -0.1175769433D+01 EUMP2 =    -0.30008293729048D+03
 CCSD(T)
 CCSD(T)= -0.30008922882D+03

 Unable to determine electronic state:  an orbital has unidentified symmetry.
 Alpha  occ. eigenvalues --  -20.17811 -20.17810 -20.14251 -20.14251  -0.99267
 Alpha  occ. eigenvalues --   -0.98965  -0.61697  -0.60071  -0.17819  -0.17307
 Alpha  occ. eigenvalues --   -0.16149  -0.12682  -0.11587  -0.10182   0.03661
 Alpha  occ. eigenvalues --    0.04637   0.20151
 Alpha virt. eigenvalues --    0.36929   0.76336   0.83225   1.15884   1.16173
 Alpha virt. eigenvalues --    1.17184   1.17595   1.19881   1.20793   1.21714
 Alpha virt. eigenvalues --    1.23684   1.25107   1.35321   1.36803   1.38512

 Mulliken charges:
               1
     1  O   -0.364872
     2  O   -0.635128
     3  O   -0.635128
     4  O   -0.364872
 Sum of Mulliken charges =  -2.00000

 Dipole moment (field-independent basis, Debye):
    X=             -0.0000    Y=             -0.0000    Z=             -0.0000  Tot=              0.0000
 Quadrupole moment (field-independent basis, Debye-Ang):
   XX=            -24.3972   YY=            -25.6944   ZZ=            -75.5243
   XY=              0.0000   XZ=              0.0000   YZ=              0.0000

 Normal termination of Gaussian 16 at Wed Jan  4 19:52:50 2023.
