 Gaussian 16, Revision A.03,
 Gaussian 16:  ES64L-G16RevA.03 25-Dec-2016

 -------------------------------------
 #p CCSD(T)/cc-pVTZ Guess=Read SCF=XQC
 -------------------------------------

 -------
 O2_O2_9
 -------
 Symbolic Z-matrix:
 Charge = -2 Multiplicity = 1

                         Standard orientation:
 ---------------------------------------------------------------------
 Center     Atomic      Atomic             Coordinates (Angstroms)
 Number     Number       Type             X           Y           Z
 ---------------------------------------------------------------------
      1          8           0        0.000000    0.000000    0.856289
      2          8           0        0.000000    0.000000    2.208669
      3          8           0        0.000000    0.000000   -2.208669
      4          8           0        0.000000    0.000000   -0.856289
 ---------------------------------------------------------------------

 SCF Done:  E(RHF) =  -298.876111180     A.U. after   10 cycles
 E2 =    -0.1095263340D+01 EUMP2 =    -0.29997137451983D+03
 CCSD(T)
 CCSD(T)= -0.29999264978D+03

 Unable to determine electronic state:  an orbital has unidentified symmetry.
 Alpha  occ. eigenvalues --  -20.16213 -20.16207 -20.08371 -20.08370  -0.98384
 Alpha  occ. eigenvalues --   -0.94771  -0.64915  -0.52595  -0.18757  -0.17218
 Alpha  occ. eigenvalues --   -0.12839  -0.10813  -0.05466  -0.00338   0.05255
 Alpha  occ. eigenvalues --    0.10086   0.17554
 Alpha virt. eigenvalues --    0.46769   0.80503   0.90595   1.17827   1.18133
 Alpha virt. eigenvalues --    1.19427   1.21130   1.23590   1.24347   1.28261
 Alpha virt. eigenvalues --    1.29838   1.38978   1.39209   1.44413   1.45970

 Mulliken charges:
               1
     1  O   -0.234021
     2  O   -0.765979
     3  O   -0.765979
     4  O   -0.234021
 Sum of Mulliken charges =  -2.00000

 Dipole moment (field-independent basis, Debye):
    X=             -0.0000    Y=              0.0000    Z=              0.0000  Tot=              0.0000
 Quadrupole moment (field-independent basis, Debye-Ang):
   XX=            -24.4603   YY=            -25.6201   ZZ=            -64.1673
   XY=              0.0000   XZ=              0.0000   YZ=              0.0000

 Normal termination of Gaussian 16 at Wed Jan  4 19:17:34 2023.
