 Gaussian 16, Revision A.03,
 Gaussian 16:  ES64L-G16RevA.03 25-Dec-2016

 ---------------------------------------------------------------
 #p ROCCSD(T)/cc-pVTZ Guess=Read SCF=(VeryTight,CDIIS,VShift=10)
 ---------------------------------------------------------------

 ---------
 O2_O2_140
 ---------
 Symbolic Z-matrix:
 Charge = -2 Multiplicity = 1

                         Standard orientation:
 ---------------------------------------------------------------------
 Center     Atomic      Atomic             Coordinates (Angstroms)
 Number     Number       Type             X           Y           Z
 ---------------------------------------------------------------------
      1          8           0        0.000000    0.000000    1.783676
      2          8           0        0.000000    0.000000    3.136056
      3          8           0        0.000000    0.000000   -3.136056
      4          8           0        0.000000    0.000000   -1.783676
 ---------------------------------------------------------------------

 SCF Done:  E(ROHF) =  -298.905600079     A.U. after    8 cycles
 E2 =    -0.1263263429D+01 EUMP2 =    -0.30016886350794D+03
 CCSD(T)
 CCSD(T)= -0.30012638439D+03

 Unable to determine electronic state:  an orbital has unidentified symmetry.
 Alpha  occ. eigenvalues --  -20.19219 -20.19219 -20.17423 -20.17423  -1.01420
 Alpha  occ. eigenvalues --   -1.01386  -0.63428  -0.63197  -0.19872  -0.19816
 Alpha  occ. eigenvalues --   -0.17279  -0.16703  -0.13502  -0.12958   0.01682
 Alpha  occ. eigenvalues --    0.01823   0.20032
 Alpha virt. eigenvalues --    0.31834   0.72165   0.78530   1.08590   1.15476
 Alpha virt. eigenvalues --    1.16143   1.16609   1.16931   1.17168   1.17901
 Alpha virt. eigenvalues --    1.23949   1.25461   1.26756   1.28240   1.35816

 Mulliken charges and spin densities:
               1          2
     1  O   -0.417544   0.000000
     2  O   -0.582456   0.000000
     3  O   -0.582456  -0.000000
     4  O   -0.417544   0.000000
 Sum of Mulliken charges =  -2.00000   0.00000

 Dipole moment (field-independent basis, Debye):
    X=             -0.0000    Y=              0.0000    Z=              0.0000  Tot=              0.0000
 Quadrupole moment (field-independent basis, Debye-Ang):
   XX=            -24.2719   YY=            -25.6745   ZZ=            -94.5811
   XY=              0.0000   XZ=              0.0000   YZ=              0.0000

 CCSD(T)/cc-pVTZ Guess=Read SCF=(VeryTight,CDIIS,VShift=10)\\O2_O2_140\
 181\CCSD=-299.9971949\CCSD(T)=-300.1263844\RMSD=9.443e-09\PG=D*H [C*(O
 Normal termination of Gaussian 16 at Sat Jan 14 20:12:24 2023.
