 Gaussian 16, Revision A.03,
 Gaussian 16:  ES64L-G16RevA.03 25-Dec-2016

 ---------------------------------------------------------------
 #p ROCCSD(T)/cc-pVTZ Guess=Read SCF=(VeryTight,CDIIS,VShift=10)
 ---------------------------------------------------------------

 --------
 O2_O2_11
 --------
 Symbolic Z-matrix:
 Charge = -2 Multiplicity = 1

                         Standard orientation:
 ---------------------------------------------------------------------
 Center     Atomic      Atomic             Coordinates (Angstroms)
 Number     Number       Type             X           Y           Z
 ---------------------------------------------------------------------
      1          8           0        0.000000    0.000000    0.870447
      2          8           0        0.000000    0.000000    2.222828
      3          8           0        0.000000    0.000000   -2.222828
      4          8           0        0.000000    0.000000   -0.870447
 ---------------------------------------------------------------------

 SCF Done:  E(ROHF) =  -298.881254515     A.U. after    8 cycles
 E2 =    -0.1096845939D+01 EUMP2 =    -0.29997810045399D+03
 CCSD(T)
 CCSD(T)= -0.29999969158D+03

 Unable to determine electronic state:  an orbital has unidentified symmetry.
 Alpha  occ. eigenvalues --  -20.16265 -20.16259 -20.08659 -20.08659  -0.98268
 Alpha  occ. eigenvalues --   -0.94969  -0.64538  -0.52988  -0.18573  -0.17108
 Alpha  occ. eigenvalues --   -0.13050  -0.10734  -0.05681  -0.01113   0.05217
 Alpha  occ. eigenvalues --    0.09822   0.17729
 Alpha virt. eigenvalues --    0.46321   0.80438   0.90199   1.17871   1.17964
 Alpha virt. eigenvalues --    1.19289   1.21006   1.23435   1.24198   1.27986
 Alpha virt. eigenvalues --    1.29560   1.39012   1.39304   1.44200   1.45750

 Mulliken charges and spin densities:
               1          2
     1  O   -0.241000   0.000000
     2  O   -0.759000   0.000000
     3  O   -0.759000   0.000000
     4  O   -0.241000   0.000000
 Sum of Mulliken charges =  -2.00000   0.00000

 Dipole moment (field-independent basis, Debye):
    X=             -0.0000    Y=              0.0000    Z=             -0.0000  Tot=              0.0000
 Quadrupole moment (field-independent basis, Debye-Ang):
   XX=            -24.4692   YY=            -25.6308   ZZ=            -64.3592
   XY=              0.0000   XZ=              0.0000   YZ=              0.0000

 CCSD(T)/cc-pVTZ Guess=Read SCF=(VeryTight,CDIIS,VShift=10)\\O2_O2_11\\
 71\CCSD=-299.9247386\CCSD(T)=-299.9996916\RMSD=6.501e-09\PG=D*H [C*(O1
 Normal termination of Gaussian 16 at Sat Jan 14 17:32:48 2023.
