 Gaussian 16, Revision A.03,
 Gaussian 16:  ES64L-G16RevA.03 25-Dec-2016

 -------------------------------------
 #p CCSD(T)/cc-pVTZ Guess=Read SCF=XQC
 -------------------------------------

 ---------
 O2_O2_250
 ---------
 Symbolic Z-matrix:
 Charge = -2 Multiplicity = 1

                         Standard orientation:
 ---------------------------------------------------------------------
 Center     Atomic      Atomic             Coordinates (Angstroms)
 Number     Number       Type             X           Y           Z
 ---------------------------------------------------------------------
      1          8           0        0.000000    0.000000    2.562398
      2          8           0        0.000000    0.000000    3.914778
      3          8           0        0.000000    0.000000   -3.914778
      4          8           0        0.000000    0.000000   -2.562398
 ---------------------------------------------------------------------

 SCF Done:  E(RHF) =  -298.914801853     A.U. after    8 cycles
 E2 =    -0.1381555298D+01 EUMP2 =    -0.30029635715098D+03
 CCSD(T)
 CCSD(T)= -0.30016131552D+03

 Unable to determine electronic state:  an orbital has unidentified symmetry.
 Alpha  occ. eigenvalues --  -20.21341 -20.21341 -20.20420 -20.20420  -1.03949
 Alpha  occ. eigenvalues --   -1.03945  -0.65964  -0.65930  -0.22384  -0.22384
 Alpha  occ. eigenvalues --   -0.19699  -0.19681  -0.15876  -0.15669  -0.00835
 Alpha  occ. eigenvalues --   -0.00833   0.19037
 Alpha virt. eigenvalues --    0.27519   0.72513   0.72884   1.12045   1.12479
 Alpha virt. eigenvalues --    1.14107   1.14117   1.15099   1.15110   1.16658
 Alpha virt. eigenvalues --    1.17230   1.22616   1.22650   1.24098   1.24131

 Mulliken charges:
               1
     1  O   -0.452871
     2  O   -0.547129
     3  O   -0.547129
     4  O   -0.452871
 Sum of Mulliken charges =  -2.00000

 Dipole moment (field-independent basis, Debye):
    X=             -0.0000    Y=              0.0000    Z=              0.0000  Tot=              0.0000
 Quadrupole moment (field-independent basis, Debye-Ang):
   XX=            -24.2310   YY=            -25.6600   ZZ=           -135.7986
   XY=              0.0000   XZ=              0.0000   YZ=              0.0000

 Normal termination of Gaussian 16 at Wed Jan  4 21:35:01 2023.
