 Gaussian 16, Revision A.03,
 Gaussian 16:  ES64L-G16RevA.03 25-Dec-2016

 ---------------------------------------------------------------
 #p ROCCSD(T)/cc-pVTZ Guess=Read SCF=(VeryTight,CDIIS,VShift=10)
 ---------------------------------------------------------------

 ---------
 O2_O2_234
 ---------
 Symbolic Z-matrix:
 Charge = -2 Multiplicity = 1

                         Standard orientation:
 ---------------------------------------------------------------------
 Center     Atomic      Atomic             Coordinates (Angstroms)
 Number     Number       Type             X           Y           Z
 ---------------------------------------------------------------------
      1          8           0        0.000000    0.000000    2.449130
      2          8           0        0.000000    0.000000    3.801510
      3          8           0        0.000000    0.000000   -3.801510
      4          8           0        0.000000    0.000000   -2.449130
 ---------------------------------------------------------------------

 SCF Done:  E(ROHF) =  -298.913427687     A.U. after    8 cycles
 E2 =    -0.1365178346D+01 EUMP2 =    -0.30027860603314D+03
 CCSD(T)
 CCSD(T)= -0.30015734330D+03

 Unable to determine electronic state:  an orbital has unidentified symmetry.
 Alpha  occ. eigenvalues --  -20.21073 -20.21073 -20.20080 -20.20080  -1.03648
 Alpha  occ. eigenvalues --   -1.03644  -0.65659  -0.65619  -0.22084  -0.22083
 Alpha  occ. eigenvalues --   -0.19392  -0.19362  -0.15590  -0.15358  -0.00532
 Alpha  occ. eigenvalues --   -0.00528   0.19174
 Alpha virt. eigenvalues --    0.27995   0.72685   0.73366   1.12152   1.12932
 Alpha virt. eigenvalues --    1.14394   1.14415   1.15386   1.15407   1.16772
 Alpha virt. eigenvalues --    1.17921   1.22903   1.22976   1.24386   1.24458

 Mulliken charges and spin densities:
               1          2
     1  O   -0.449362   0.000000
     2  O   -0.550638   0.000000
     3  O   -0.550638   0.000000
     4  O   -0.449362   0.000000
 Sum of Mulliken charges =  -2.00000   0.00000

 Dipole moment (field-independent basis, Debye):
    X=             -0.0000    Y=             -0.0000    Z=              0.0000  Tot=              0.0000
 Quadrupole moment (field-independent basis, Debye-Ang):
   XX=            -24.2327   YY=            -25.6613   ZZ=           -129.0407
   XY=              0.0000   XZ=              0.0000   YZ=              0.0000

 CCSD(T)/cc-pVTZ Guess=Read SCF=(VeryTight,CDIIS,VShift=10)\\O2_O2_234\
 3\CCSD=-300.0166589\CCSD(T)=-300.1573433\RMSD=4.102e-09\PG=D*H [C*(O1O
 Normal termination of Gaussian 16 at Sat Jan 14 22:19:01 2023.
