 Gaussian 16, Revision A.03,
 Gaussian 16:  ES64L-G16RevA.03 25-Dec-2016

 -------------------------------------
 #p CCSD(T)/cc-pVTZ Guess=Read SCF=XQC
 -------------------------------------

 -------
 O2_O2_6
 -------
 Symbolic Z-matrix:
 Charge = -2 Multiplicity = 1

                         Standard orientation:
 ---------------------------------------------------------------------
 Center     Atomic      Atomic             Coordinates (Angstroms)
 Number     Number       Type             X           Y           Z
 ---------------------------------------------------------------------
      1          8           0        0.000000    0.000000    0.835051
      2          8           0        0.000000    0.000000    2.187431
      3          8           0        0.000000    0.000000   -2.187431
      4          8           0        0.000000    0.000000   -0.835051
 ---------------------------------------------------------------------

 SCF Done:  E(RHF) =  -298.867025116     A.U. after   10 cycles
 E2 =    -0.1093225142D+01 EUMP2 =    -0.29996025025847D+03
 CCSD(T)
 CCSD(T)= -0.29998091426D+03

 Unable to determine electronic state:  an orbital has unidentified symmetry.
 Alpha  occ. eigenvalues --  -20.16146 -20.16139 -20.07916 -20.07916  -0.98616
 Alpha  occ. eigenvalues --   -0.94462  -0.65542  -0.51979  -0.19042  -0.17429
 Alpha  occ. eigenvalues --   -0.12511  -0.10969  -0.05131   0.00912   0.05311
 Alpha  occ. eigenvalues --    0.10498   0.17276
 Alpha virt. eigenvalues --    0.47462   0.80576   0.91229   1.17737   1.18415
 Alpha virt. eigenvalues --    1.19616   1.21292   1.23830   1.24577   1.28689
 Alpha virt. eigenvalues --    1.30264   1.38919   1.39037   1.44717   1.46288

 Mulliken charges:
               1
     1  O   -0.222859
     2  O   -0.777141
     3  O   -0.777141
     4  O   -0.222859
 Sum of Mulliken charges =  -2.00000

 Dipole moment (field-independent basis, Debye):
    X=             -0.0000    Y=              0.0000    Z=              0.0000  Tot=              0.0000
 Quadrupole moment (field-independent basis, Debye-Ang):
   XX=            -24.4440   YY=            -25.6017   ZZ=            -63.9132
   XY=              0.0000   XZ=              0.0000   YZ=              0.0000

 Normal termination of Gaussian 16 at Wed Jan  4 19:15:52 2023.
