 Gaussian 16, Revision A.03,
 Gaussian 16:  ES64L-G16RevA.03 25-Dec-2016

 ---------------------------------------------------------------
 #p ROCCSD(T)/cc-pVTZ Guess=Read SCF=(VeryTight,CDIIS,VShift=10)
 ---------------------------------------------------------------

 ---------
 O2_O2_138
 ---------
 Symbolic Z-matrix:
 Charge = -2 Multiplicity = 1

                         Standard orientation:
 ---------------------------------------------------------------------
 Center     Atomic      Atomic             Coordinates (Angstroms)
 Number     Number       Type             X           Y           Z
 ---------------------------------------------------------------------
      1          8           0        0.000000    0.000000    1.769518
      2          8           0        0.000000    0.000000    3.121898
      3          8           0        0.000000    0.000000   -3.121898
      4          8           0        0.000000    0.000000   -1.769518
 ---------------------------------------------------------------------

 SCF Done:  E(ROHF) =  -298.905493805     A.U. after    8 cycles
 E2 =    -0.1260907084D+01 EUMP2 =    -0.30016640088852D+03
 CCSD(T)
 CCSD(T)= -0.30012553079D+03

 Unable to determine electronic state:  an orbital has unidentified symmetry.
 Alpha  occ. eigenvalues --  -20.19177 -20.19176 -20.17350 -20.17350  -1.01363
 Alpha  occ. eigenvalues --   -1.01327  -0.63373  -0.63130  -0.19816  -0.19756
 Alpha  occ. eigenvalues --   -0.17232  -0.16624  -0.13449  -0.12893   0.01737
 Alpha  occ. eigenvalues --    0.01887   0.20048
 Alpha virt. eigenvalues --    0.31944   0.72187   0.78666   1.08559   1.15504
 Alpha virt. eigenvalues --    1.16169   1.16639   1.17005   1.17198   1.17974
 Alpha virt. eigenvalues --    1.23937   1.25450   1.26912   1.28397   1.36238

 Mulliken charges and spin densities:
               1          2
     1  O   -0.416531   0.000000
     2  O   -0.583469   0.000000
     3  O   -0.583469   0.000000
     4  O   -0.416531   0.000000
 Sum of Mulliken charges =  -2.00000   0.00000

 Dipole moment (field-independent basis, Debye):
    X=             -0.0000    Y=             -0.0000    Z=             -0.0000  Tot=              0.0000
 Quadrupole moment (field-independent basis, Debye-Ang):
   XX=            -24.2740   YY=            -25.6750   ZZ=            -93.9475
   XY=              0.0000   XZ=              0.0000   YZ=              0.0000

 CCSD(T)/cc-pVTZ Guess=Read SCF=(VeryTight,CDIIS,VShift=10)\\O2_O2_138\
 5019\CCSD=-299.9967254\CCSD(T)=-300.1255308\RMSD=9.708e-09\PG=D*H [C*(
 Normal termination of Gaussian 16 at Sat Jan 14 20:09:59 2023.
