 Gaussian 16, Revision A.03,
 Gaussian 16:  ES64L-G16RevA.03 25-Dec-2016

 ---------------------------------------------------------------
 #p ROCCSD(T)/cc-pVTZ Guess=Read SCF=(VeryTight,CDIIS,VShift=10)
 ---------------------------------------------------------------

 --------
 O2_O2_45
 --------
 Symbolic Z-matrix:
 Charge = -2 Multiplicity = 1

                         Standard orientation:
 ---------------------------------------------------------------------
 Center     Atomic      Atomic             Coordinates (Angstroms)
 Number     Number       Type             X           Y           Z
 ---------------------------------------------------------------------
      1          8           0        0.000000    0.000000    1.111144
      2          8           0        0.000000    0.000000    2.463524
      3          8           0        0.000000    0.000000   -2.463524
      4          8           0        0.000000    0.000000   -1.111144
 ---------------------------------------------------------------------

 SCF Done:  E(ROHF) =  -298.909301890     A.U. after    9 cycles
 E2 =    -0.1137867328D+01 EUMP2 =    -0.30004716921863D+03
 CCSD(T)
 CCSD(T)= -0.30006538132D+03

 Unable to determine electronic state:  an orbital has unidentified symmetry.
 Alpha  occ. eigenvalues --  -20.17221 -20.17219 -20.12330 -20.12330  -0.98396
 Alpha  occ. eigenvalues --   -0.97576  -0.61666  -0.57847  -0.17060  -0.16504
 Alpha  occ. eigenvalues --   -0.15830  -0.10867  -0.09452  -0.08569   0.04435
 Alpha  occ. eigenvalues --    0.06398   0.19630
 Alpha virt. eigenvalues --    0.40214   0.78427   0.85572   1.16384   1.16791
 Alpha virt. eigenvalues --    1.17877   1.18468   1.21262   1.22124   1.24733
 Alpha virt. eigenvalues --    1.26138   1.34801   1.38989   1.39676   1.40439

 Mulliken charges and spin densities:
               1          2
     1  O   -0.324753   0.000000
     2  O   -0.675247   0.000000
     3  O   -0.675247   0.000000
     4  O   -0.324753   0.000000
 Sum of Mulliken charges =  -2.00000   0.00000

 Dipole moment (field-independent basis, Debye):
    X=             -0.0000    Y=              0.0000    Z=             -0.0000  Tot=              0.0000
 Quadrupole moment (field-independent basis, Debye-Ang):
   XX=            -24.4696   YY=            -25.6991   ZZ=            -69.6026
   XY=              0.0000   XZ=              0.0000   YZ=              0.0000

 CCSD(T)/cc-pVTZ Guess=Read SCF=(VeryTight,CDIIS,VShift=10)\\O2_O2_45\\
 793\CCSD=-299.9702798\CCSD(T)=-300.0653813\RMSD=5.731e-09\PG=D*H [C*(O
 Normal termination of Gaussian 16 at Sat Jan 14 18:14:16 2023.
