 Gaussian 16, Revision A.03,
 Gaussian 16:  ES64L-G16RevA.03 25-Dec-2016

 -------------------------------------
 #p CCSD(T)/cc-pVTZ Guess=Read SCF=XQC
 -------------------------------------

 ---------
 O2_O2_166
 ---------
 Symbolic Z-matrix:
 Charge = -2 Multiplicity = 1

                         Standard orientation:
 ---------------------------------------------------------------------
 Center     Atomic      Atomic             Coordinates (Angstroms)
 Number     Number       Type             X           Y           Z
 ---------------------------------------------------------------------
      1          8           0        0.000000    0.000000    1.967738
      2          8           0        0.000000    0.000000    3.320118
      3          8           0        0.000000    0.000000   -3.320118
      4          8           0        0.000000    0.000000   -1.967738
 ---------------------------------------------------------------------

 SCF Done:  E(RHF) =  -298.907395096     A.U. after    8 cycles
 E2 =    -0.1292950161D+01 EUMP2 =    -0.30020034525743D+03
 CCSD(T)
 CCSD(T)= -0.30013657858D+03

 Unable to determine electronic state:  an orbital has unidentified symmetry.
 Alpha  occ. eigenvalues --  -20.19766 -20.19766 -20.18295 -20.18295  -1.02122
 Alpha  occ. eigenvalues --   -1.02105  -0.64119  -0.63995  -0.20565  -0.20542
 Alpha  occ. eigenvalues --   -0.17898  -0.17620  -0.14151  -0.13739   0.00997
 Alpha  occ. eigenvalues --    0.01057   0.19806
 Alpha virt. eigenvalues --    0.30539   0.72328   0.76787   1.09937   1.14994
 Alpha virt. eigenvalues --    1.15716   1.16056   1.16394   1.16715   1.17037
 Alpha virt. eigenvalues --    1.23927   1.25142   1.25427   1.26626   1.27488

 Mulliken charges:
               1
     1  O   -0.429016
     2  O   -0.570984
     3  O   -0.570984
     4  O   -0.429016
 Sum of Mulliken charges =  -2.00000

 Dipole moment (field-independent basis, Debye):
    X=             -0.0000    Y=             -0.0000    Z=             -0.0000  Tot=              0.0000
 Quadrupole moment (field-independent basis, Debye-Ang):
   XX=            -24.2520   YY=            -25.6696   ZZ=           -103.2039
   XY=              0.0000   XZ=              0.0000   YZ=              0.0000

 Normal termination of Gaussian 16 at Wed Jan  4 20:45:41 2023.
