 Gaussian 16, Revision A.03,
 Gaussian 16:  ES64L-G16RevA.03 25-Dec-2016

 -------------------------------------
 #p CCSD(T)/cc-pVTZ Guess=Read SCF=XQC
 -------------------------------------

 --------
 O2_O2_59
 --------
 Symbolic Z-matrix:
 Charge = -2 Multiplicity = 1

                         Standard orientation:
 ---------------------------------------------------------------------
 Center     Atomic      Atomic             Coordinates (Angstroms)
 Number     Number       Type             X           Y           Z
 ---------------------------------------------------------------------
      1          8           0        0.000000    0.000000    1.210253
      2          8           0        0.000000    0.000000    2.562634
      3          8           0        0.000000    0.000000   -2.562634
      4          8           0        0.000000    0.000000   -1.210253
 ---------------------------------------------------------------------

 SCF Done:  E(RHF) =  -298.908623216     A.U. after    9 cycles
 E2 =    -0.1157520264D+01 EUMP2 =    -0.30006614348043D+03
 CCSD(T)
 CCSD(T)= -0.30007901693D+03

 Unable to determine electronic state:  an orbital has unidentified symmetry.
 Alpha  occ. eigenvalues --  -20.17539 -20.17538 -20.13398 -20.13398  -0.98831
 Alpha  occ. eigenvalues --   -0.98346  -0.61563  -0.59120  -0.17429  -0.16651
 Alpha  occ. eigenvalues --   -0.16212  -0.11339  -0.11221  -0.09459   0.04042
 Alpha  occ. eigenvalues --    0.05412   0.19973
 Alpha virt. eigenvalues --    0.38379   0.77389   0.84280   1.16063   1.16301
 Alpha virt. eigenvalues --    1.17686   1.17853   1.20525   1.21416   1.24056
 Alpha virt. eigenvalues --    1.25456   1.27532   1.37456   1.38768   1.38939

 Mulliken charges:
               1
     1  O   -0.347789
     2  O   -0.652211
     3  O   -0.652211
     4  O   -0.347789
 Sum of Mulliken charges =  -2.00000

 Dipole moment (field-independent basis, Debye):
    X=             -0.0000    Y=             -0.0000    Z=             -0.0000  Tot=              0.0000
 Quadrupole moment (field-independent basis, Debye-Ang):
   XX=            -24.4330   YY=            -25.6983   ZZ=            -72.5268
   XY=              0.0000   XZ=              0.0000   YZ=              0.0000

 Normal termination of Gaussian 16 at Wed Jan  4 19:45:13 2023.
