 Gaussian 16, Revision A.03,
 Gaussian 16:  ES64L-G16RevA.03 25-Dec-2016

 ---------------------------------------------------------------
 #p ROCCSD(T)/cc-pVTZ Guess=Read SCF=(VeryTight,CDIIS,VShift=10)
 ---------------------------------------------------------------

 -------
 O2_O2_2
 -------
 Symbolic Z-matrix:
 Charge = -2 Multiplicity = 1

                         Standard orientation:
 ---------------------------------------------------------------------
 Center     Atomic      Atomic             Coordinates (Angstroms)
 Number     Number       Type             X           Y           Z
 ---------------------------------------------------------------------
      1          8           0        0.000000    0.000000    0.806734
      2          8           0        0.000000    0.000000    2.159114
      3          8           0        0.000000    0.000000   -2.159114
      4          8           0        0.000000    0.000000   -0.806734
 ---------------------------------------------------------------------

 SCF Done:  E(ROHF) =  -298.851936916     A.U. after   10 cycles
 E2 =    -0.1091243795D+01 EUMP2 =    -0.29994318071081D+03
 CCSD(T)
 CCSD(T)= -0.29996275054D+03

 Unable to determine electronic state:  an orbital has unidentified symmetry.
 Alpha  occ. eigenvalues --  -20.16084 -20.16075 -20.07268 -20.07268  -0.99065
 Alpha  occ. eigenvalues --   -0.94029  -0.66497  -0.51107  -0.19439  -0.17812
 Alpha  occ. eigenvalues --   -0.12051  -0.11266  -0.04662   0.02760   0.05387
 Alpha  occ. eigenvalues --    0.11077   0.16882
 Alpha virt. eigenvalues --    0.48422   0.80620   0.92160   1.17566   1.18852
 Alpha virt. eigenvalues --    1.19823   1.21458   1.24164   1.24900   1.29286
 Alpha virt. eigenvalues --    1.30842   1.38755   1.38833   1.45095   1.46686

 Mulliken charges and spin densities:
               1          2
     1  O   -0.206562   0.000000
     2  O   -0.793438   0.000000
     3  O   -0.793438   0.000000
     4  O   -0.206562   0.000000
 Sum of Mulliken charges =  -2.00000   0.00000

 Dipole moment (field-independent basis, Debye):
    X=             -0.0000    Y=              0.0000    Z=             -0.0000  Tot=              0.0000
 Quadrupole moment (field-independent basis, Debye-Ang):
   XX=            -24.4162   YY=            -25.5726   ZZ=            -63.6436
   XY=              0.0000   XZ=              0.0000   YZ=              0.0000

 CCSD(T)/cc-pVTZ Guess=Read SCF=(VeryTight,CDIIS,VShift=10)\\O2_O2_2\\-
 62\CCSD=-299.8922061\CCSD(T)=-299.9627505\RMSD=5.694e-09\PG=D*H [C*(O1
 Normal termination of Gaussian 16 at Sat Jan 14 17:22:20 2023.
