 Gaussian 16, Revision A.03,
 Gaussian 16:  ES64L-G16RevA.03 25-Dec-2016

 ---------------------------------------------------------------
 #p ROCCSD(T)/cc-pVTZ Guess=Read SCF=(VeryTight,CDIIS,VShift=10)
 ---------------------------------------------------------------

 ---------
 O2_O2_272
 ---------
 Symbolic Z-matrix:
 Charge = -2 Multiplicity = 1

                         Standard orientation:
 ---------------------------------------------------------------------
 Center     Atomic      Atomic             Coordinates (Angstroms)
 Number     Number       Type             X           Y           Z
 ---------------------------------------------------------------------
      1          8           0        0.000000    0.000000    2.718142
      2          8           0        0.000000    0.000000    4.070523
      3          8           0        0.000000    0.000000   -4.070523
      4          8           0        0.000000    0.000000   -2.718142
 ---------------------------------------------------------------------

 SCF Done:  E(ROHF) =  -298.916585865     A.U. after    8 cycles
 E2 =    -0.1403887156D+01 EUMP2 =    -0.30032047302047D+03
 CCSD(T)
 CCSD(T)= -0.30016633606D+03

 Unable to determine electronic state:  an orbital has unidentified symmetry.
 Alpha  occ. eigenvalues --  -20.21684 -20.21684 -20.20850 -20.20850  -1.04330
 Alpha  occ. eigenvalues --   -1.04327  -0.66351  -0.66323  -0.22766  -0.22765
 Alpha  occ. eigenvalues --   -0.20090  -0.20082  -0.16242  -0.16063  -0.01221
 Alpha  occ. eigenvalues --   -0.01220   0.18860
 Alpha virt. eigenvalues --    0.26919   0.72210   0.72357   1.11789   1.11966
 Alpha virt. eigenvalues --    1.13738   1.13741   1.14731   1.14735   1.16375
 Alpha virt. eigenvalues --    1.16577   1.22239   1.22250   1.23720   1.23731

 Mulliken charges and spin densities:
               1          2
     1  O   -0.457135   0.000000
     2  O   -0.542865   0.000000
     3  O   -0.542865   0.000000
     4  O   -0.457135   0.000000
 Sum of Mulliken charges =  -2.00000   0.00000

 Dipole moment (field-independent basis, Debye):
    X=             -0.0000    Y=              0.0000    Z=              0.0000  Tot=              0.0000
 Quadrupole moment (field-independent basis, Debye-Ang):
   XX=            -24.2293   YY=            -25.6586   ZZ=           -145.5105
   XY=              0.0000   XZ=              0.0000   YZ=              0.0000

 CCSD(T)/cc-pVTZ Guess=Read SCF=(VeryTight,CDIIS,VShift=10)\\O2_O2_272\
 11\CCSD=-300.0228637\CCSD(T)=-300.1663361\RMSD=3.351e-09\PG=D*H [C*(O1
 Normal termination of Gaussian 16 at Sat Jan 14 23:10:05 2023.
