 Gaussian 16, Revision A.03,
 Gaussian 16:  ES64L-G16RevA.03 25-Dec-2016

 -------------------------------------
 #p CCSD(T)/cc-pVTZ Guess=Read SCF=XQC
 -------------------------------------

 ---------
 O2_O2_261
 ---------
 Symbolic Z-matrix:
 Charge = -2 Multiplicity = 1

                         Standard orientation:
 ---------------------------------------------------------------------
 Center     Atomic      Atomic             Coordinates (Angstroms)
 Number     Number       Type             X           Y           Z
 ---------------------------------------------------------------------
      1          8           0        0.000000    0.000000    2.640271
      2          8           0        0.000000    0.000000    3.992651
      3          8           0        0.000000    0.000000   -3.992651
      4          8           0        0.000000    0.000000   -2.640271
 ---------------------------------------------------------------------

 SCF Done:  E(RHF) =  -298.915709800     A.U. after    8 cycles
 E2 =    -0.1392743801D+01 EUMP2 =    -0.30030845360148D+03
 CCSD(T)
 CCSD(T)= -0.30016388589D+03

 Unable to determine electronic state:  an orbital has unidentified symmetry.
 Alpha  occ. eigenvalues --  -20.21516 -20.21516 -20.20640 -20.20640  -1.04144
 Alpha  occ. eigenvalues --   -1.04141  -0.66162  -0.66132  -0.22579  -0.22579
 Alpha  occ. eigenvalues --   -0.19899  -0.19887  -0.16063  -0.15871  -0.01033
 Alpha  occ. eigenvalues --   -0.01031   0.18946
 Alpha virt. eigenvalues --    0.27211   0.72368   0.72604   1.11927   1.12208
 Alpha virt. eigenvalues --    1.13919   1.13925   1.14911   1.14918   1.16529
 Alpha virt. eigenvalues --    1.16873   1.22425   1.22444   1.23906   1.23925

 Mulliken charges:
               1
     1  O   -0.455078
     2  O   -0.544922
     3  O   -0.544922
     4  O   -0.455078
 Sum of Mulliken charges =  -2.00000

 Dipole moment (field-independent basis, Debye):
    X=             -0.0000    Y=              0.0000    Z=             -0.0000  Tot=              0.0000
 Quadrupole moment (field-independent basis, Debye-Ang):
   XX=            -24.2301   YY=            -25.6593   ZZ=           -140.5939
   XY=              0.0000   XZ=              0.0000   YZ=              0.0000

 Normal termination of Gaussian 16 at Wed Jan  4 21:41:30 2023.
