 Gaussian 16, Revision A.03,
 Gaussian 16:  ES64L-G16RevA.03 25-Dec-2016

 ---------------------------------------------------------------
 #p ROCCSD(T)/cc-pVTZ Guess=Read SCF=(VeryTight,CDIIS,VShift=10)
 ---------------------------------------------------------------

 --------
 O2_O2_20
 --------
 Symbolic Z-matrix:
 Charge = -2 Multiplicity = 1

                         Standard orientation:
 ---------------------------------------------------------------------
 Center     Atomic      Atomic             Coordinates (Angstroms)
 Number     Number       Type             X           Y           Z
 ---------------------------------------------------------------------
      1          8           0        0.000000    0.000000    0.934161
      2          8           0        0.000000    0.000000    2.286542
      3          8           0        0.000000    0.000000   -2.286542
      4          8           0        0.000000    0.000000   -0.934161
 ---------------------------------------------------------------------

 SCF Done:  E(ROHF) =  -298.897284740     A.U. after   10 cycles
 E2 =    -0.1105682534D+01 EUMP2 =    -0.30000296727461D+03
 CCSD(T)
 CCSD(T)= -0.30002517992D+03

 Unable to determine electronic state:  an orbital has unidentified symmetry.
 Alpha  occ. eigenvalues --  -20.16527 -20.16523 -20.09835 -20.09835  -0.98019
 Alpha  occ. eigenvalues --   -0.95791  -0.63206  -0.54591  -0.17824  -0.16834
 Alpha  occ. eigenvalues --   -0.13925  -0.10564  -0.06575  -0.04096   0.05039
 Alpha  occ. eigenvalues --    0.08733   0.18423
 Alpha virt. eigenvalues --    0.44435   0.80030   0.88646   1.17355   1.17960
 Alpha virt. eigenvalues --    1.18584   1.20344   1.22783   1.23575   1.26864
 Alpha virt. eigenvalues --    1.28394   1.39113   1.39543   1.43158   1.44678

 Mulliken charges and spin densities:
               1          2
     1  O   -0.268564  -0.000000
     2  O   -0.731436  -0.000000
     3  O   -0.731436  -0.000000
     4  O   -0.268564  -0.000000
 Sum of Mulliken charges =  -2.00000  -0.00000

 Dipole moment (field-independent basis, Debye):
    X=             -0.0000    Y=              0.0000    Z=             -0.0000  Tot=              0.0000
 Quadrupole moment (field-independent basis, Debye-Ang):
   XX=            -24.4926   YY=            -25.6665   ZZ=            -65.4175
   XY=              0.0000   XZ=              0.0000   YZ=              0.0000

 CCSD(T)/cc-pVTZ Guess=Read SCF=(VeryTight,CDIIS,VShift=10)\\O2_O2_20\\
 556\CCSD=-299.9450721\CCSD(T)=-300.0251799\RMSD=1.154e-09\PG=D*H [C*(O
 Normal termination of Gaussian 16 at Sat Jan 14 17:43:17 2023.
