 Gaussian 16, Revision A.03,
 Gaussian 16:  ES64L-G16RevA.03 25-Dec-2016

 ---------------------------------------------------------------
 #p ROCCSD(T)/cc-pVTZ Guess=Read SCF=(VeryTight,CDIIS,VShift=10)
 ---------------------------------------------------------------

 ---------
 O2_O2_142
 ---------
 Symbolic Z-matrix:
 Charge = -2 Multiplicity = 1

                         Standard orientation:
 ---------------------------------------------------------------------
 Center     Atomic      Atomic             Coordinates (Angstroms)
 Number     Number       Type             X           Y           Z
 ---------------------------------------------------------------------
      1          8           0        0.000000    0.000000    1.797835
      2          8           0        0.000000    0.000000    3.150215
      3          8           0        0.000000    0.000000   -3.150215
      4          8           0        0.000000    0.000000   -1.797835
 ---------------------------------------------------------------------

 SCF Done:  E(ROHF) =  -298.905711962     A.U. after    8 cycles
 E2 =    -0.1265608399D+01 EUMP2 =    -0.30017132036037D+03
 CCSD(T)
 CCSD(T)= -0.30012722741D+03

 Unable to determine electronic state:  an orbital has unidentified symmetry.
 Alpha  occ. eigenvalues --  -20.19262 -20.19261 -20.17495 -20.17495  -1.01476
 Alpha  occ. eigenvalues --   -1.01444  -0.63483  -0.63263  -0.19928  -0.19875
 Alpha  occ. eigenvalues --   -0.17326  -0.16781  -0.13554  -0.13022   0.01628
 Alpha  occ. eigenvalues --    0.01760   0.20016
 Alpha virt. eigenvalues --    0.31725   0.72150   0.78394   1.08635   1.15447
 Alpha virt. eigenvalues --    1.16115   1.16580   1.16858   1.17138   1.17829
 Alpha virt. eigenvalues --    1.23959   1.25470   1.26605   1.28089   1.35254

 Mulliken charges and spin densities:
               1          2
     1  O   -0.418535   0.000000
     2  O   -0.581465   0.000000
     3  O   -0.581465   0.000000
     4  O   -0.418535   0.000000
 Sum of Mulliken charges =  -2.00000   0.00000

 Dipole moment (field-independent basis, Debye):
    X=             -0.0000    Y=             -0.0000    Z=             -0.0000  Tot=              0.0000
 Quadrupole moment (field-independent basis, Debye-Ang):
   XX=            -24.2700   YY=            -25.6741   ZZ=            -95.2190
   XY=              0.0000   XZ=              0.0000   YZ=              0.0000

 CCSD(T)/cc-pVTZ Guess=Read SCF=(VeryTight,CDIIS,VShift=10)\\O2_O2_142\
 \CCSD=-299.9976627\CCSD(T)=-300.1272274\RMSD=9.169e-09\PG=D*H [C*(O1O1
 Normal termination of Gaussian 16 at Sat Jan 14 20:15:04 2023.
