 Gaussian 16, Revision A.03,
 Gaussian 16:  ES64L-G16RevA.03 25-Dec-2016

 ---------------------------------------------------------------
 #p ROCCSD(T)/cc-pVTZ Guess=Read SCF=(VeryTight,CDIIS,VShift=10)
 ---------------------------------------------------------------

 ---------
 O2_O2_297
 ---------
 Symbolic Z-matrix:
 Charge = -2 Multiplicity = 1

                         Standard orientation:
 ---------------------------------------------------------------------
 Center     Atomic      Atomic             Coordinates (Angstroms)
 Number     Number       Type             X           Y           Z
 ---------------------------------------------------------------------
      1          8           0        0.000000    0.000000    2.895125
      2          8           0        0.000000    0.000000    4.247505
      3          8           0        0.000000    0.000000   -4.247505
      4          8           0        0.000000    0.000000   -2.895125
 ---------------------------------------------------------------------

 SCF Done:  E(ROHF) =  -298.918458025     A.U. after    8 cycles
 E2 =    -0.1429084661D+01 EUMP2 =    -0.30034754268587D+03
 CCSD(T)
 CCSD(T)= -0.30017150206D+03

 Unable to determine electronic state:  an orbital has unidentified symmetry.
 Alpha  occ. eigenvalues --  -20.22041 -20.22041 -20.21290 -20.21290  -1.04724
 Alpha  occ. eigenvalues --   -1.04722  -0.66750  -0.66727  -0.23159  -0.23159
 Alpha  occ. eigenvalues --   -0.20496  -0.20492  -0.16621  -0.16469  -0.01619
 Alpha  occ. eigenvalues --   -0.01619   0.18674
 Alpha virt. eigenvalues --    0.26304   0.71834   0.71879   1.11442   1.11500
 Alpha virt. eigenvalues --    1.13354   1.13355   1.14348   1.14350   1.15984
 Alpha virt. eigenvalues --    1.16042   1.21843   1.21846   1.23324   1.23327

 Mulliken charges and spin densities:
               1          2
     1  O   -0.461317   0.000000
     2  O   -0.538683   0.000000
     3  O   -0.538683   0.000000
     4  O   -0.461317   0.000000
 Sum of Mulliken charges =  -2.00000   0.00000

 Dipole moment (field-independent basis, Debye):
    X=             -0.0000    Y=              0.0000    Z=             -0.0000  Tot=              0.0000
 Quadrupole moment (field-independent basis, Debye-Ang):
   XX=            -24.2278   YY=            -25.6573   ZZ=           -157.1343
   XY=              0.0000   XZ=              0.0000   YZ=              0.0000

 CCSD(T)/cc-pVTZ Guess=Read SCF=(VeryTight,CDIIS,VShift=10)\\O2_O2_297\
 \CCSD=-300.0264661\CCSD(T)=-300.1715021\RMSD=2.868e-09\PG=D*H [C*(O1O1
 Normal termination of Gaussian 16 at Sat Jan 14 23:43:29 2023.
