 Gaussian 16, Revision A.03,
 Gaussian 16:  ES64L-G16RevA.03 25-Dec-2016

 ---------------------------------------------------------------
 #p ROCCSD(T)/cc-pVTZ Guess=Read SCF=(VeryTight,CDIIS,VShift=10)
 ---------------------------------------------------------------

 ---------
 O2_O2_216
 ---------
 Symbolic Z-matrix:
 Charge = -2 Multiplicity = 1

                         Standard orientation:
 ---------------------------------------------------------------------
 Center     Atomic      Atomic             Coordinates (Angstroms)
 Number     Number       Type             X           Y           Z
 ---------------------------------------------------------------------
      1          8           0        0.000000    0.000000    2.321703
      2          8           0        0.000000    0.000000    3.674083
      3          8           0        0.000000    0.000000   -3.674083
      4          8           0        0.000000    0.000000   -2.321703
 ---------------------------------------------------------------------

 SCF Done:  E(ROHF) =  -298.911819973     A.U. after    8 cycles
 E2 =    -0.1346557510D+01 EUMP2 =    -0.30025837748318D+03
 CCSD(T)
 CCSD(T)= -0.30015250921D+03

 Unable to determine electronic state:  an orbital has unidentified symmetry.
 Alpha  occ. eigenvalues --  -20.20752 -20.20752 -20.19664 -20.19664  -1.03285
 Alpha  occ. eigenvalues --   -1.03279  -0.65291  -0.65241  -0.21722  -0.21718
 Alpha  occ. eigenvalues --   -0.19025  -0.18968  -0.15245  -0.14979  -0.00166
 Alpha  occ. eigenvalues --   -0.00157   0.19336
 Alpha virt. eigenvalues --    0.28579   0.72785   0.74044   1.12102   1.13512
 Alpha virt. eigenvalues --    1.14734   1.14782   1.15726   1.15772   1.16756
 Alpha virt. eigenvalues --    1.19114   1.23228   1.23395   1.24714   1.24878

 Mulliken charges and spin densities:
               1          2
     1  O   -0.444932   0.000000
     2  O   -0.555068   0.000000
     3  O   -0.555068   0.000000
     4  O   -0.444932   0.000000
 Sum of Mulliken charges =  -2.00000   0.00000

 Dipole moment (field-independent basis, Debye):
    X=             -0.0000    Y=              0.0000    Z=             -0.0000  Tot=              0.0000
 Quadrupole moment (field-independent basis, Debye-Ang):
   XX=            -24.2353   YY=            -25.6629   ZZ=           -121.7462
   XY=              0.0000   XZ=              0.0000   YZ=              0.0000

 CCSD(T)/cc-pVTZ Guess=Read SCF=(VeryTight,CDIIS,VShift=10)\\O2_O2_216\
 \CCSD=-300.0133804\CCSD(T)=-300.1525092\RMSD=4.040e-09\PG=D*H [C*(O1O1
 Normal termination of Gaussian 16 at Sat Jan 14 21:53:34 2023.
