 Gaussian 16, Revision A.03,
 Gaussian 16:  ES64L-G16RevA.03 25-Dec-2016

 ---------------------------------------------------------------
 #p ROCCSD(T)/cc-pVTZ Guess=Read SCF=(VeryTight,CDIIS,VShift=10)
 ---------------------------------------------------------------

 ---------
 O2_O2_153
 ---------
 Symbolic Z-matrix:
 Charge = -2 Multiplicity = 1

                         Standard orientation:
 ---------------------------------------------------------------------
 Center     Atomic      Atomic             Coordinates (Angstroms)
 Number     Number       Type             X           Y           Z
 ---------------------------------------------------------------------
      1          8           0        0.000000    0.000000    1.875707
      2          8           0        0.000000    0.000000    3.228087
      3          8           0        0.000000    0.000000   -3.228087
      4          8           0        0.000000    0.000000   -1.875707
 ---------------------------------------------------------------------

 SCF Done:  E(ROHF) =  -298.906414888     A.U. after    8 cycles
 E2 =    -0.1278312381D+01 EUMP2 =    -0.30018472726931D+03
 CCSD(T)
 CCSD(T)= -0.30013168087D+03

 Unable to determine electronic state:  an orbital has unidentified symmetry.
 Alpha  occ. eigenvalues --  -20.19494 -20.19493 -20.17875 -20.17875  -1.01779
 Alpha  occ. eigenvalues --   -1.01756  -0.63780  -0.63612  -0.20226  -0.20190
 Alpha  occ. eigenvalues --   -0.17588  -0.17186  -0.13834  -0.13362   0.01333
 Alpha  occ. eigenvalues --    0.01426   0.19923
 Alpha virt. eigenvalues --    0.31156   0.72167   0.77650   1.09101   1.15262
 Alpha virt. eigenvalues --    1.15946   1.16458   1.16473   1.16955   1.17448
 Alpha virt. eigenvalues --    1.23979   1.25485   1.25860   1.27344   1.31481

 Mulliken charges and spin densities:
               1          2
     1  O   -0.423643   0.000000
     2  O   -0.576357   0.000000
     3  O   -0.576357   0.000000
     4  O   -0.423643   0.000000
 Sum of Mulliken charges =  -2.00000   0.00000

 Dipole moment (field-independent basis, Debye):
    X=             -0.0000    Y=             -0.0000    Z=              0.0000  Tot=              0.0000
 Quadrupole moment (field-independent basis, Debye-Ang):
   XX=            -24.2606   YY=            -25.6719   ZZ=            -98.8033
   XY=              0.0000   XZ=              0.0000   YZ=              0.0000

 CCSD(T)/cc-pVTZ Guess=Read SCF=(VeryTight,CDIIS,VShift=10)\\O2_O2_153\
 6207\CCSD=-300.0002015\CCSD(T)=-300.1316809\RMSD=7.370e-09\PG=D*H [C*(
 Normal termination of Gaussian 16 at Sat Jan 14 20:29:16 2023.
