 Gaussian 16, Revision A.03,
 Gaussian 16:  ES64L-G16RevA.03 25-Dec-2016

 -------------------------------------
 #p CCSD(T)/cc-pVTZ Guess=Read SCF=XQC
 -------------------------------------

 ---------
 O2_O2_220
 ---------
 Symbolic Z-matrix:
 Charge = -2 Multiplicity = 1

                         Standard orientation:
 ---------------------------------------------------------------------
 Center     Atomic      Atomic             Coordinates (Angstroms)
 Number     Number       Type             X           Y           Z
 ---------------------------------------------------------------------
      1          8           0        0.000000    0.000000    2.350020
      2          8           0        0.000000    0.000000    3.702400
      3          8           0        0.000000    0.000000   -3.702400
      4          8           0        0.000000    0.000000   -2.350020
 ---------------------------------------------------------------------

 SCF Done:  E(RHF) =  -298.912181540     A.U. after    8 cycles
 E2 =    -0.1350717236D+01 EUMP2 =    -0.30026289877536D+03
 CCSD(T)
 CCSD(T)= -0.30015361824D+03

 Unable to determine electronic state:  an orbital has unidentified symmetry.
 Alpha  occ. eigenvalues --  -20.20825 -20.20825 -20.19760 -20.19760  -1.03368
 Alpha  occ. eigenvalues --   -1.03363  -0.65375  -0.65328  -0.21805  -0.21802
 Alpha  occ. eigenvalues --   -0.19109  -0.19059  -0.15323  -0.15066  -0.00249
 Alpha  occ. eigenvalues --   -0.00242   0.19299
 Alpha virt. eigenvalues --    0.28445   0.72773   0.73879   1.12135   1.13379
 Alpha virt. eigenvalues --    1.14657   1.14697   1.15649   1.15688   1.16774
 Alpha virt. eigenvalues --    1.18797   1.23157   1.23296   1.24642   1.24778

 Mulliken charges:
               1
     1  O   -0.445965
     2  O   -0.554035
     3  O   -0.554035
     4  O   -0.445965
 Sum of Mulliken charges =  -2.00000

 Dipole moment (field-independent basis, Debye):
    X=             -0.0000    Y=              0.0000    Z=             -0.0000  Tot=              0.0000
 Quadrupole moment (field-independent basis, Debye-Ang):
   XX=            -24.2346   YY=            -25.6625   ZZ=           -123.3390
   XY=              0.0000   XZ=              0.0000   YZ=              0.0000

 Normal termination of Gaussian 16 at Wed Jan  4 21:17:19 2023.
