 Gaussian 16, Revision A.03,
 Gaussian 16:  ES64L-G16RevA.03 25-Dec-2016

 ---------------------------------------------------------------
 #p ROCCSD(T)/cc-pVTZ Guess=Read SCF=(VeryTight,CDIIS,VShift=10)
 ---------------------------------------------------------------

 --------
 O2_O2_74
 --------
 Symbolic Z-matrix:
 Charge = -2 Multiplicity = 1

                         Standard orientation:
 ---------------------------------------------------------------------
 Center     Atomic      Atomic             Coordinates (Angstroms)
 Number     Number       Type             X           Y           Z
 ---------------------------------------------------------------------
      1          8           0        0.000000    0.000000    1.316443
      2          8           0        0.000000    0.000000    2.668823
      3          8           0        0.000000    0.000000   -2.668823
      4          8           0        0.000000    0.000000   -1.316443
 ---------------------------------------------------------------------

 SCF Done:  E(ROHF) =  -298.906945869     A.U. after    9 cycles
 E2 =    -0.1178551763D+01 EUMP2 =    -0.30008549763265D+03
 CCSD(T)
 CCSD(T)= -0.30009065765D+03

 Unable to determine electronic state:  an orbital has unidentified symmetry.
 Alpha  occ. eigenvalues --  -20.17852 -20.17850 -20.14372 -20.14372  -0.99335
 Alpha  occ. eigenvalues --   -0.99053  -0.61730  -0.60202  -0.17881  -0.17401
 Alpha  occ. eigenvalues --   -0.16153  -0.12863  -0.11644  -0.10286   0.03602
 Alpha  occ. eigenvalues --    0.04528   0.20169
 Alpha virt. eigenvalues --    0.36725   0.76167   0.83072   1.15867   1.16173
 Alpha virt. eigenvalues --    1.17034   1.17575   1.19784   1.20700   1.20990
 Alpha virt. eigenvalues --    1.23647   1.25075   1.34993   1.36475   1.38470

 Mulliken charges and spin densities:
               1          2
     1  O   -0.367201   0.000000
     2  O   -0.632799  -0.000000
     3  O   -0.632799  -0.000000
     4  O   -0.367201   0.000000
 Sum of Mulliken charges =  -2.00000   0.00000

 Dipole moment (field-independent basis, Debye):
    X=             -0.0000    Y=             -0.0000    Z=              0.0000  Tot=              0.0000
 Quadrupole moment (field-independent basis, Debye-Ang):
   XX=            -24.3918   YY=            -25.6937   ZZ=            -76.0067
   XY=              0.0000   XZ=              0.0000   YZ=              0.0000

 CCSD(T)/cc-pVTZ Guess=Read SCF=(VeryTight,CDIIS,VShift=10)\\O2_O2_74\\
 893\CCSD=-299.9809131\CCSD(T)=-300.0906577\RMSD=3.463e-09\PG=D*H [C*(O
 Normal termination of Gaussian 16 at Sat Jan 14 18:49:05 2023.
