 Gaussian 16, Revision A.03,
 Gaussian 16:  ES64L-G16RevA.03 25-Dec-2016

 -------------------------------------
 #p CCSD(T)/cc-pVTZ Guess=Read SCF=XQC
 -------------------------------------

 --------
 O2_O2_78
 --------
 Symbolic Z-matrix:
 Charge = -2 Multiplicity = 1

                         Standard orientation:
 ---------------------------------------------------------------------
 Center     Atomic      Atomic             Coordinates (Angstroms)
 Number     Number       Type             X           Y           Z
 ---------------------------------------------------------------------
      1          8           0        0.000000    0.000000    1.344760
      2          8           0        0.000000    0.000000    2.697140
      3          8           0        0.000000    0.000000   -2.697140
      4          8           0        0.000000    0.000000   -1.344760
 ---------------------------------------------------------------------

 SCF Done:  E(RHF) =  -298.906523418     A.U. after    9 cycles
 E2 =    -0.1184087619D+01 EUMP2 =    -0.30009061103664D+03
 CCSD(T)
 CCSD(T)= -0.30009342367D+03

 Unable to determine electronic state:  an orbital has unidentified symmetry.
 Alpha  occ. eigenvalues --  -20.17933 -20.17932 -20.14608 -20.14608  -0.99471
 Alpha  occ. eigenvalues --   -0.99226  -0.61803  -0.60453  -0.18005  -0.17583
 Alpha  occ. eigenvalues --   -0.16170  -0.13207  -0.11760  -0.10489   0.03482
 Alpha  occ. eigenvalues --    0.04316   0.20199
 Alpha virt. eigenvalues --    0.36329   0.75826   0.82772   1.15839   1.16183
 Alpha virt. eigenvalues --    1.16600   1.17546   1.19593   1.19762   1.20514
 Alpha virt. eigenvalues --    1.23586   1.25025   1.34343   1.35825   1.38382

 Mulliken charges:
               1
     1  O   -0.371657
     2  O   -0.628343
     3  O   -0.628343
     4  O   -0.371657
 Sum of Mulliken charges =  -2.00000

 Dipole moment (field-independent basis, Debye):
    X=             -0.0000    Y=              0.0000    Z=              0.0000  Tot=              0.0000
 Quadrupole moment (field-independent basis, Debye-Ang):
   XX=            -24.3814   YY=            -25.6924   ZZ=            -76.9873
   XY=              0.0000   XZ=              0.0000   YZ=              0.0000

 389\MP4DQ=-299.9457725\MP4SDQ=-299.9726497\CCSD=-299.9819915\CCSD(T)=-
 Normal termination of Gaussian 16 at Wed Jan  4 19:56:10 2023.
