 Gaussian 16, Revision A.03,
 Gaussian 16:  ES64L-G16RevA.03 25-Dec-2016

 -------------------------------------
 #p CCSD(T)/cc-pVTZ Guess=Read SCF=XQC
 -------------------------------------

 --------
 O2_O2_76
 --------
 Symbolic Z-matrix:
 Charge = -2 Multiplicity = 1

                         Standard orientation:
 ---------------------------------------------------------------------
 Center     Atomic      Atomic             Coordinates (Angstroms)
 Number     Number       Type             X           Y           Z
 ---------------------------------------------------------------------
      1          8           0        0.000000    0.000000    1.330602
      2          8           0        0.000000    0.000000    2.682982
      3          8           0        0.000000    0.000000   -2.682982
      4          8           0        0.000000    0.000000   -1.330602
 ---------------------------------------------------------------------

 SCF Done:  E(RHF) =  -298.906730579     A.U. after    9 cycles
 E2 =    -0.1181324731D+01 EUMP2 =    -0.30008805531035D+03
 CCSD(T)
 CCSD(T)= -0.30009205535D+03

 Unable to determine electronic state:  an orbital has unidentified symmetry.
 Alpha  occ. eigenvalues --  -20.17893 -20.17891 -20.14491 -20.14491  -0.99403
 Alpha  occ. eigenvalues --   -0.99140  -0.61765  -0.60329  -0.17943  -0.17492
 Alpha  occ. eigenvalues --   -0.16160  -0.13038  -0.11702  -0.10388   0.03542
 Alpha  occ. eigenvalues --    0.04421   0.20185
 Alpha virt. eigenvalues --    0.36525   0.75997   0.82921   1.15852   1.16176
 Alpha virt. eigenvalues --    1.16843   1.17559   1.19688   1.20335   1.20606
 Alpha virt. eigenvalues --    1.23614   1.25047   1.34667   1.36149   1.38426

 Mulliken charges:
               1
     1  O   -0.369462
     2  O   -0.630538
     3  O   -0.630538
     4  O   -0.369462
 Sum of Mulliken charges =  -2.00000

 Dipole moment (field-independent basis, Debye):
    X=             -0.0000    Y=              0.0000    Z=             -0.0000  Tot=              0.0000
 Quadrupole moment (field-independent basis, Debye-Ang):
   XX=            -24.3865   YY=            -25.6930   ZZ=            -76.4944
   XY=              0.0000   XZ=              0.0000   YZ=              0.0000

 Normal termination of Gaussian 16 at Wed Jan  4 19:55:02 2023.
