 Gaussian 16, Revision A.03,
 Gaussian 16:  ES64L-G16RevA.03 25-Dec-2016

 ---------------------------------------------------------------
 #p ROCCSD(T)/cc-pVTZ Guess=Read SCF=(VeryTight,CDIIS,VShift=10)
 ---------------------------------------------------------------

 --------
 O2_O2_24
 --------
 Symbolic Z-matrix:
 Charge = -2 Multiplicity = 1

                         Standard orientation:
 ---------------------------------------------------------------------
 Center     Atomic      Atomic             Coordinates (Angstroms)
 Number     Number       Type             X           Y           Z
 ---------------------------------------------------------------------
      1          8           0        0.000000    0.000000    0.962478
      2          8           0        0.000000    0.000000    2.314859
      3          8           0        0.000000    0.000000   -2.314859
      4          8           0        0.000000    0.000000   -0.962478
 ---------------------------------------------------------------------

 SCF Done:  E(ROHF) =  -298.901575389     A.U. after    9 cycles
 E2 =    -0.1110283159D+01 EUMP2 =    -0.30001185854791D+03
 CCSD(T)
 CCSD(T)= -0.30003396486D+03

 Unable to determine electronic state:  an orbital has unidentified symmetry.
 Alpha  occ. eigenvalues --  -20.16648 -20.16645 -20.10301 -20.10301  -0.98007
 Alpha  occ. eigenvalues --   -0.96122  -0.62779  -0.55220  -0.17536  -0.16799
 Alpha  occ. eigenvalues --   -0.14278  -0.10558  -0.06938  -0.05199   0.04953
 Alpha  occ. eigenvalues --    0.08297   0.18682
 Alpha virt. eigenvalues --    0.43664   0.79806   0.88052   1.17146   1.17964
 Alpha virt. eigenvalues --    1.18254   1.20018   1.22514   1.23318   1.26428
 Alpha virt. eigenvalues --    1.27932   1.39128   1.39535   1.42654   1.44165

 Mulliken charges and spin densities:
               1          2
     1  O   -0.279198   0.000000
     2  O   -0.720802   0.000000
     3  O   -0.720802   0.000000
     4  O   -0.279198   0.000000
 Sum of Mulliken charges =  -2.00000   0.00000

 Dipole moment (field-independent basis, Debye):
    X=             -0.0000    Y=              0.0000    Z=              0.0000  Tot=              0.0000
 Quadrupole moment (field-independent basis, Debye-Ang):
   XX=            -24.4958   YY=            -25.6770   ZZ=            -65.9767
   XY=              0.0000   XZ=              0.0000   YZ=              0.0000

 CCSD(T)/cc-pVTZ Guess=Read SCF=(VeryTight,CDIIS,VShift=10)\\O2_O2_24\\
 981\CCSD=-299.9514488\CCSD(T)=-300.0339649\RMSD=9.533e-09\PG=D*H [C*(O
 Normal termination of Gaussian 16 at Sat Jan 14 17:48:03 2023.
