 Gaussian 16, Revision A.03,
 Gaussian 16:  ES64L-G16RevA.03 25-Dec-2016

 ---------------------------------------------------------------
 #p ROCCSD(T)/cc-pVTZ Guess=Read SCF=(VeryTight,CDIIS,VShift=10)
 ---------------------------------------------------------------

 ---------
 O2_O2_196
 ---------
 Symbolic Z-matrix:
 Charge = -2 Multiplicity = 1

                         Standard orientation:
 ---------------------------------------------------------------------
 Center     Atomic      Atomic             Coordinates (Angstroms)
 Number     Number       Type             X           Y           Z
 ---------------------------------------------------------------------
      1          8           0        0.000000    0.000000    2.180117
      2          8           0        0.000000    0.000000    3.532497
      3          8           0        0.000000    0.000000   -3.532497
      4          8           0        0.000000    0.000000   -2.180117
 ---------------------------------------------------------------------

 SCF Done:  E(ROHF) =  -298.909999230     A.U. after    8 cycles
 E2 =    -0.1325521513D+01 EUMP2 =    -0.30023552074354D+03
 CCSD(T)
 CCSD(T)= -0.30014662251D+03

 Unable to determine electronic state:  an orbital has unidentified symmetry.
 Alpha  occ. eigenvalues --  -20.20373 -20.20372 -20.19158 -20.19158  -1.02848
 Alpha  occ. eigenvalues --   -1.02839  -0.64849  -0.64780  -0.21286  -0.21279
 Alpha  occ. eigenvalues --   -0.18591  -0.18480  -0.14832  -0.14519   0.00274
 Alpha  occ. eigenvalues --    0.00294   0.19523
 Alpha virt. eigenvalues --    0.29296   0.72728   0.74995   1.11652   1.14171
 Alpha virt. eigenvalues --    1.15128   1.15239   1.16120   1.16226   1.16578
 Alpha virt. eigenvalues --    1.21331   1.23568   1.23958   1.25057   1.25441

 Mulliken charges and spin densities:
               1          2
     1  O   -0.439300   0.000000
     2  O   -0.560700   0.000000
     3  O   -0.560700   0.000000
     4  O   -0.439300   0.000000
 Sum of Mulliken charges =  -2.00000   0.00000

 Dipole moment (field-independent basis, Debye):
    X=             -0.0000    Y=              0.0000    Z=              0.0000  Tot=              0.0000
 Quadrupole moment (field-independent basis, Debye-Ang):
   XX=            -24.2398   YY=            -25.6652   ZZ=           -114.0246
   XY=              0.0000   XZ=              0.0000   YZ=              0.0000

 CCSD(T)/cc-pVTZ Guess=Read SCF=(VeryTight,CDIIS,VShift=10)\\O2_O2_196\
 6738\CCSD=-300.0094735\CCSD(T)=-300.1466225\RMSD=3.443e-09\PG=D*H [C*(
 Normal termination of Gaussian 16 at Sat Jan 14 21:27:42 2023.
