 Gaussian 16, Revision A.03,
 Gaussian 16:  ES64L-G16RevA.03 25-Dec-2016

 ---------------------------------------------------------------
 #p ROCCSD(T)/cc-pVTZ Guess=Read SCF=(VeryTight,CDIIS,VShift=10)
 ---------------------------------------------------------------

 ---------
 O2_O2_231
 ---------
 Symbolic Z-matrix:
 Charge = -2 Multiplicity = 1

                         Standard orientation:
 ---------------------------------------------------------------------
 Center     Atomic      Atomic             Coordinates (Angstroms)
 Number     Number       Type             X           Y           Z
 ---------------------------------------------------------------------
      1          8           0        0.000000    0.000000    2.427892
      2          8           0        0.000000    0.000000    3.780272
      3          8           0        0.000000    0.000000   -3.780272
      4          8           0        0.000000    0.000000   -2.427892
 ---------------------------------------------------------------------

 SCF Done:  E(ROHF) =  -298.913163664     A.U. after    8 cycles
 E2 =    -0.1362091146D+01 EUMP2 =    -0.30027525480997D+03
 CCSD(T)
 CCSD(T)= -0.30015656570D+03

 Unable to determine electronic state:  an orbital has unidentified symmetry.
 Alpha  occ. eigenvalues --  -20.21021 -20.21021 -20.20013 -20.20013  -1.03590
 Alpha  occ. eigenvalues --   -1.03585  -0.65600  -0.65558  -0.22026  -0.22024
 Alpha  occ. eigenvalues --   -0.19333  -0.19299  -0.15534  -0.15297  -0.00473
 Alpha  occ. eigenvalues --   -0.00468   0.19200
 Alpha virt. eigenvalues --    0.28089   0.72709   0.73468   1.12159   1.13025
 Alpha virt. eigenvalues --    1.14450   1.14474   1.15441   1.15465   1.16781
 Alpha virt. eigenvalues --    1.18083   1.22958   1.23042   1.24441   1.24524

 Mulliken charges and spin densities:
               1          2
     1  O   -0.448661   0.000000
     2  O   -0.551339   0.000000
     3  O   -0.551339   0.000000
     4  O   -0.448661   0.000000
 Sum of Mulliken charges =  -2.00000   0.00000

 Dipole moment (field-independent basis, Debye):
    X=             -0.0000    Y=             -0.0000    Z=             -0.0000  Tot=              0.0000
 Quadrupole moment (field-independent basis, Debye-Ang):
   XX=            -24.2330   YY=            -25.6615   ZZ=           -127.8023
   XY=              0.0000   XZ=              0.0000   YZ=              0.0000

 CCSD(T)/cc-pVTZ Guess=Read SCF=(VeryTight,CDIIS,VShift=10)\\O2_O2_231\
 7812\CCSD=-300.0161281\CCSD(T)=-300.1565657\RMSD=4.130e-09\PG=D*H [C*(
 Normal termination of Gaussian 16 at Sat Jan 14 22:15:02 2023.
