 Gaussian 16, Revision A.03,
 Gaussian 16:  ES64L-G16RevA.03 25-Dec-2016

 -------------------------------------
 #p CCSD(T)/cc-pVTZ Guess=Read SCF=XQC
 -------------------------------------

 ---------
 O2_O2_173
 ---------
 Symbolic Z-matrix:
 Charge = -2 Multiplicity = 1

                         Standard orientation:
 ---------------------------------------------------------------------
 Center     Atomic      Atomic             Coordinates (Angstroms)
 Number     Number       Type             X           Y           Z
 ---------------------------------------------------------------------
      1          8           0        0.000000    0.000000    2.017293
      2          8           0        0.000000    0.000000    3.369673
      3          8           0        0.000000    0.000000   -3.369673
      4          8           0        0.000000    0.000000   -2.017293
 ---------------------------------------------------------------------

 SCF Done:  E(RHF) =  -298.907971038     A.U. after    8 cycles
 E2 =    -0.1300686120D+01 EUMP2 =    -0.30020865715808D+03
 CCSD(T)
 CCSD(T)= -0.30013906813D+03

 Unable to determine electronic state:  an orbital has unidentified symmetry.
 Alpha  occ. eigenvalues --  -20.19911 -20.19910 -20.18508 -20.18508  -1.02299
 Alpha  occ. eigenvalues --   -1.02285  -0.64297  -0.64189  -0.20740  -0.20722
 Alpha  occ. eigenvalues --   -0.18063  -0.17837  -0.14317  -0.13932   0.00821
 Alpha  occ. eigenvalues --    0.00868   0.19741
 Alpha virt. eigenvalues --    0.30228   0.72438   0.76338   1.10417   1.14826
 Alpha virt. eigenvalues --    1.15583   1.15849   1.16400   1.16579   1.16831
 Alpha virt. eigenvalues --    1.23869   1.24815   1.25366   1.25684   1.26300

 Mulliken charges:
               1
     1  O   -0.431654
     2  O   -0.568346
     3  O   -0.568346
     4  O   -0.431654
 Sum of Mulliken charges =  -2.00000

 Dipole moment (field-independent basis, Debye):
    X=             -0.0000    Y=             -0.0000    Z=              0.0000  Tot=              0.0000
 Quadrupole moment (field-independent basis, Debye-Ang):
   XX=            -24.2483   YY=            -25.6684   ZZ=           -105.6462
   XY=              0.0000   XZ=              0.0000   YZ=              0.0000

 Normal termination of Gaussian 16 at Wed Jan  4 20:49:41 2023.
