 Gaussian 16, Revision A.03,
 Gaussian 16:  ES64L-G16RevA.03 25-Dec-2016

 -------------------------------------
 #p CCSD(T)/cc-pVTZ Guess=Read SCF=XQC
 -------------------------------------

 --------
 O2_O2_31
 --------
 Symbolic Z-matrix:
 Charge = -2 Multiplicity = 1

                         Standard orientation:
 ---------------------------------------------------------------------
 Center     Atomic      Atomic             Coordinates (Angstroms)
 Number     Number       Type             X           Y           Z
 ---------------------------------------------------------------------
      1          8           0        0.000000    0.000000    1.012034
      2          8           0        0.000000    0.000000    2.364414
      3          8           0        0.000000    0.000000   -2.364414
      4          8           0        0.000000    0.000000   -1.012034
 ---------------------------------------------------------------------

 SCF Done:  E(RHF) =  -298.906277191     A.U. after    9 cycles
 E2 =    -0.1118989940D+01 EUMP2 =    -0.30002526713022D+03
 CCSD(T)
 CCSD(T)= -0.30004667602D+03

 Unable to determine electronic state:  an orbital has unidentified symmetry.
 Alpha  occ. eigenvalues --  -20.16853 -20.16850 -20.11048 -20.11048  -0.98073
 Alpha  occ. eigenvalues --   -0.96656  -0.62226  -0.56213  -0.17104  -0.16821
 Alpha  occ. eigenvalues --   -0.14848  -0.10611  -0.07529  -0.06869   0.04793
 Alpha  occ. eigenvalues --    0.07596   0.19070
 Alpha virt. eigenvalues --    0.42407   0.79375   0.87124   1.16841   1.17693
 Alpha virt. eigenvalues --    1.17948   1.19448   1.22071   1.22896   1.25758
 Alpha virt. eigenvalues --    1.27217   1.39117   1.39234   1.41719   1.43217

 Mulliken charges:
               1
     1  O   -0.296060
     2  O   -0.703940
     3  O   -0.703940
     4  O   -0.296060
 Sum of Mulliken charges =  -2.00000

 Dipole moment (field-independent basis, Debye):
    X=             -0.0000    Y=             -0.0000    Z=             -0.0000  Tot=              0.0000
 Quadrupole moment (field-independent basis, Debye-Ang):
   XX=            -24.4936   YY=            -25.6894   ZZ=            -67.0664
   XY=              0.0000   XZ=              0.0000   YZ=              0.0000

 Normal termination of Gaussian 16 at Wed Jan  4 19:29:06 2023.
