 Gaussian 16, Revision A.03,
 Gaussian 16:  ES64L-G16RevA.03 25-Dec-2016

 ---------------------------------------------------------------
 #p ROCCSD(T)/cc-pVTZ Guess=Read SCF=(VeryTight,CDIIS,VShift=10)
 ---------------------------------------------------------------

 --------
 O2_O2_97
 --------
 Symbolic Z-matrix:
 Charge = -2 Multiplicity = 1

                         Standard orientation:
 ---------------------------------------------------------------------
 Center     Atomic      Atomic             Coordinates (Angstroms)
 Number     Number       Type             X           Y           Z
 ---------------------------------------------------------------------
      1          8           0        0.000000    0.000000    1.479267
      2          8           0        0.000000    0.000000    2.831647
      3          8           0        0.000000    0.000000   -2.831647
      4          8           0        0.000000    0.000000   -1.479267
 ---------------------------------------------------------------------

 SCF Done:  E(ROHF) =  -298.905110783     A.U. after    9 cycles
 E2 =    -0.1209738156D+01 EUMP2 =    -0.30011484893940D+03
 CCSD(T)
 CCSD(T)= -0.30010522358D+03

 Unable to determine electronic state:  an orbital has unidentified symmetry.
 Alpha  occ. eigenvalues --  -20.18319 -20.18318 -20.15618 -20.15618  -1.00105
 Alpha  occ. eigenvalues --   -0.99977  -0.62245  -0.61484  -0.18599  -0.18369
 Alpha  occ. eigenvalues --   -0.16383  -0.14579  -0.12313  -0.11364   0.02915
 Alpha  occ. eigenvalues --    0.03414   0.20248
 Alpha virt. eigenvalues --    0.34663   0.74219   0.81428   1.12444   1.15782
 Alpha virt. eigenvalues --    1.16309   1.17509   1.17676   1.18712   1.19654
 Alpha virt. eigenvalues --    1.23530   1.25017   1.31437   1.32920   1.37935

 Mulliken charges and spin densities:
               1          2
     1  O   -0.389732  -0.000000
     2  O   -0.610268  -0.000000
     3  O   -0.610268  -0.000000
     4  O   -0.389732  -0.000000
 Sum of Mulliken charges =  -2.00000  -0.00000

 Dipole moment (field-independent basis, Debye):
    X=             -0.0000    Y=              0.0000    Z=             -0.0000  Tot=              0.0000
 Quadrupole moment (field-independent basis, Debye-Ang):
   XX=            -24.3369   YY=            -25.6860   ZZ=            -81.9164
   XY=              0.0000   XZ=              0.0000   YZ=              0.0000

 CCSD(T)/cc-pVTZ Guess=Read SCF=(VeryTight,CDIIS,VShift=10)\\O2_O2_97\\
 961\CCSD=-299.9868134\CCSD(T)=-300.1052236\RMSD=2.394e-09\PG=D*H [C*(O
 Normal termination of Gaussian 16 at Sat Jan 14 19:18:42 2023.
