 Gaussian 16, Revision A.03,
 Gaussian 16:  ES64L-G16RevA.03 25-Dec-2016

 ---------------------------------------------------------------
 #p ROCCSD(T)/cc-pVTZ Guess=Read SCF=(VeryTight,CDIIS,VShift=10)
 ---------------------------------------------------------------

 --------
 O2_O2_64
 --------
 Symbolic Z-matrix:
 Charge = -2 Multiplicity = 1

                         Standard orientation:
 ---------------------------------------------------------------------
 Center     Atomic      Atomic             Coordinates (Angstroms)
 Number     Number       Type             X           Y           Z
 ---------------------------------------------------------------------
      1          8           0        0.000000    0.000000    1.245650
      2          8           0        0.000000    0.000000    2.598030
      3          8           0        0.000000    0.000000   -2.598030
      4          8           0        0.000000    0.000000   -1.245650
 ---------------------------------------------------------------------

 SCF Done:  E(ROHF) =  -298.908083741     A.U. after    9 cycles
 E2 =    -0.1164563711D+01 EUMP2 =    -0.30007264745269D+03
 CCSD(T)
 CCSD(T)= -0.30008315734D+03

 Unable to determine electronic state:  an orbital has unidentified symmetry.
 Alpha  occ. eigenvalues --  -20.17646 -20.17644 -20.13740 -20.13740  -0.98997
 Alpha  occ. eigenvalues --   -0.98593  -0.61595  -0.59508  -0.17576  -0.16914
 Alpha  occ. eigenvalues --   -0.16168  -0.11894  -0.11359  -0.09748   0.03897
 Alpha  occ. eigenvalues --    0.05100   0.20054
 Alpha virt. eigenvalues --    0.37795   0.76994   0.83861   1.15981   1.16221
 Alpha virt. eigenvalues --    1.17554   1.17723   1.20273   1.21174   1.23886
 Alpha virt. eigenvalues --    1.25115   1.25292   1.36637   1.38119   1.38675

 Mulliken charges and spin densities:
               1          2
     1  O   -0.354792   0.000000
     2  O   -0.645208   0.000000
     3  O   -0.645208   0.000000
     4  O   -0.354792   0.000000
 Sum of Mulliken charges =  -2.00000   0.00000

 Dipole moment (field-independent basis, Debye):
    X=             -0.0000    Y=              0.0000    Z=             -0.0000  Tot=              0.0000
 Quadrupole moment (field-independent basis, Debye-Ang):
   XX=            -24.4191   YY=            -25.6970   ZZ=            -73.6503
   XY=              0.0000   XZ=              0.0000   YZ=              0.0000

 CCSD(T)/cc-pVTZ Guess=Read SCF=(VeryTight,CDIIS,VShift=10)\\O2_O2_64\\
 7\CCSD=-299.9779881\CCSD(T)=-300.0831573\RMSD=4.043e-09\PG=D*H [C*(O1O
 Normal termination of Gaussian 16 at Sat Jan 14 18:37:04 2023.
