 Gaussian 16, Revision A.03,
 Gaussian 16:  ES64L-G16RevA.03 25-Dec-2016

 ---------------------------------------------------------------
 #p ROCCSD(T)/cc-pVTZ Guess=Read SCF=(VeryTight,CDIIS,VShift=10)
 ---------------------------------------------------------------

 ---------
 O2_O2_245
 ---------
 Symbolic Z-matrix:
 Charge = -2 Multiplicity = 1

                         Standard orientation:
 ---------------------------------------------------------------------
 Center     Atomic      Atomic             Coordinates (Angstroms)
 Number     Number       Type             X           Y           Z
 ---------------------------------------------------------------------
      1          8           0        0.000000    0.000000    2.527002
      2          8           0        0.000000    0.000000    3.879382
      3          8           0        0.000000    0.000000   -3.879382
      4          8           0        0.000000    0.000000   -2.527002
 ---------------------------------------------------------------------

 SCF Done:  E(ROHF) =  -298.914378958     A.U. after    8 cycles
 E2 =    -0.1376452049D+01 EUMP2 =    -0.30029083100660D+03
 CCSD(T)
 CCSD(T)= -0.30016010469D+03

 Unable to determine electronic state:  an orbital has unidentified symmetry.
 Alpha  occ. eigenvalues --  -20.21259 -20.21259 -20.20317 -20.20316  -1.03857
 Alpha  occ. eigenvalues --   -1.03853  -0.65871  -0.65836  -0.22293  -0.22292
 Alpha  occ. eigenvalues --   -0.19605  -0.19584  -0.15788  -0.15575  -0.00743
 Alpha  occ. eigenvalues --   -0.00740   0.19079
 Alpha virt. eigenvalues --    0.27664   0.72573   0.73024   1.12089   1.12613
 Alpha virt. eigenvalues --    1.14195   1.14208   1.15187   1.15200   1.16705
 Alpha virt. eigenvalues --    1.17419   1.22705   1.22748   1.24188   1.24230

 Mulliken charges and spin densities:
               1          2
     1  O   -0.451814   0.000000
     2  O   -0.548186   0.000000
     3  O   -0.548186   0.000000
     4  O   -0.451814   0.000000
 Sum of Mulliken charges =  -2.00000   0.00000

 Dipole moment (field-independent basis, Debye):
    X=             -0.0000    Y=              0.0000    Z=              0.0000  Tot=              0.0000
 Quadrupole moment (field-independent basis, Debye-Ang):
   XX=            -24.2314   YY=            -25.6604   ZZ=           -133.6592
   XY=              0.0000   XZ=              0.0000   YZ=              0.0000

 CCSD(T)/cc-pVTZ Guess=Read SCF=(VeryTight,CDIIS,VShift=10)\\O2_O2_245\
 \CCSD=-300.0185523\CCSD(T)=-300.1601047\RMSD=3.930e-09\PG=D*H [C*(O1O1
 Normal termination of Gaussian 16 at Sat Jan 14 22:33:43 2023.
