 Gaussian 16, Revision A.03,
 Gaussian 16:  ES64L-G16RevA.03 25-Dec-2016

 ---------------------------------------------------------------
 #p ROCCSD(T)/cc-pVTZ Guess=Read SCF=(VeryTight,CDIIS,VShift=10)
 ---------------------------------------------------------------

 ---------
 O2_O2_128
 ---------
 Symbolic Z-matrix:
 Charge = -2 Multiplicity = 1

                         Standard orientation:
 ---------------------------------------------------------------------
 Center     Atomic      Atomic             Coordinates (Angstroms)
 Number     Number       Type             X           Y           Z
 ---------------------------------------------------------------------
      1          8           0        0.000000    0.000000    1.698725
      2          8           0        0.000000    0.000000    3.051105
      3          8           0        0.000000    0.000000   -3.051105
      4          8           0        0.000000    0.000000   -1.698725
 ---------------------------------------------------------------------

 SCF Done:  E(ROHF) =  -298.905057538     A.U. after    9 cycles
 E2 =    -0.1248944576D+01 EUMP2 =    -0.30015400211332D+03
 CCSD(T)
 CCSD(T)= -0.30012109175D+03

 Unable to determine electronic state:  an orbital has unidentified symmetry.
 Alpha  occ. eigenvalues --  -20.18965 -20.18964 -20.16972 -20.16972  -1.01072
 Alpha  occ. eigenvalues --   -1.01024  -0.63095  -0.62779  -0.19532  -0.19448
 Alpha  occ. eigenvalues --   -0.17000  -0.16205  -0.13183  -0.12556   0.02015
 Alpha  occ. eigenvalues --    0.02220   0.20120
 Alpha virt. eigenvalues --    0.32522   0.72402   0.79342   1.08661   1.15622
 Alpha virt. eigenvalues --    1.16276   1.16817   1.17327   1.17391   1.18354
 Alpha virt. eigenvalues --    1.23853   1.25368   1.27778   1.29262   1.37040

 Mulliken charges and spin densities:
               1          2
     1  O   -0.411132   0.000000
     2  O   -0.588868   0.000000
     3  O   -0.588868   0.000000
     4  O   -0.411132   0.000000
 Sum of Mulliken charges =  -2.00000   0.00000

 Dipole moment (field-independent basis, Debye):
    X=             -0.0000    Y=              0.0000    Z=              0.0000  Tot=              0.0000
 Quadrupole moment (field-independent basis, Debye-Ang):
   XX=            -24.2855   YY=            -25.6773   ZZ=            -90.8440
   XY=              0.0000   XZ=              0.0000   YZ=              0.0000

 CCSD(T)/cc-pVTZ Guess=Read SCF=(VeryTight,CDIIS,VShift=10)\\O2_O2_128\
 2435\CCSD=-299.9943533\CCSD(T)=-300.1210918\RMSD=1.554e-09\PG=D*H [C*(
 Normal termination of Gaussian 16 at Sat Jan 14 19:56:52 2023.
