 Gaussian 16, Revision A.03,
 Gaussian 16:  ES64L-G16RevA.03 25-Dec-2016

 -------------------------------------
 #p CCSD(T)/cc-pVTZ Guess=Read SCF=XQC
 -------------------------------------

 ---------
 O2_O2_263
 ---------
 Symbolic Z-matrix:
 Charge = -2 Multiplicity = 1

                         Standard orientation:
 ---------------------------------------------------------------------
 Center     Atomic      Atomic             Coordinates (Angstroms)
 Number     Number       Type             X           Y           Z
 ---------------------------------------------------------------------
      1          8           0        0.000000    0.000000    2.654429
      2          8           0        0.000000    0.000000    4.006809
      3          8           0        0.000000    0.000000   -4.006809
      4          8           0        0.000000    0.000000   -2.654429
 ---------------------------------------------------------------------

 SCF Done:  E(RHF) =  -298.915871476     A.U. after    8 cycles
 E2 =    -0.1394772946D+01 EUMP2 =    -0.30031064442246D+03
 CCSD(T)
 CCSD(T)= -0.30016433998D+03

 Unable to determine electronic state:  an orbital has unidentified symmetry.
 Alpha  occ. eigenvalues --  -20.21547 -20.21547 -20.20679 -20.20679  -1.04178
 Alpha  occ. eigenvalues --   -1.04175  -0.66197  -0.66167  -0.22614  -0.22613
 Alpha  occ. eigenvalues --   -0.19934  -0.19923  -0.16096  -0.15907  -0.01067
 Alpha  occ. eigenvalues --   -0.01066   0.18930
 Alpha virt. eigenvalues --    0.27157   0.72340   0.72557   1.11903   1.12162
 Alpha virt. eigenvalues --    1.13886   1.13891   1.14878   1.14884   1.16502
 Alpha virt. eigenvalues --    1.16815   1.22390   1.22408   1.23872   1.23889

 Mulliken charges:
               1
     1  O   -0.455463
     2  O   -0.544537
     3  O   -0.544537
     4  O   -0.455463
 Sum of Mulliken charges =  -2.00000

 Dipole moment (field-independent basis, Debye):
    X=             -0.0000    Y=             -0.0000    Z=              0.0000  Tot=              0.0000
 Quadrupole moment (field-independent basis, Debye-Ang):
   XX=            -24.2299   YY=            -25.6592   ZZ=           -141.4788
   XY=              0.0000   XZ=              0.0000   YZ=              0.0000

 Normal termination of Gaussian 16 at Wed Jan  4 21:42:38 2023.
