 Gaussian 16, Revision A.03,
 Gaussian 16:  ES64L-G16RevA.03 25-Dec-2016

 ---------------------------------------------------------------
 #p ROCCSD(T)/cc-pVTZ Guess=Read SCF=(VeryTight,CDIIS,VShift=10)
 ---------------------------------------------------------------

 ---------
 O2_O2_229
 ---------
 Symbolic Z-matrix:
 Charge = -2 Multiplicity = 1

                         Standard orientation:
 ---------------------------------------------------------------------
 Center     Atomic      Atomic             Coordinates (Angstroms)
 Number     Number       Type             X           Y           Z
 ---------------------------------------------------------------------
      1          8           0        0.000000    0.000000    2.413733
      2          8           0        0.000000    0.000000    3.766113
      3          8           0        0.000000    0.000000   -3.766113
      4          8           0        0.000000    0.000000   -2.413733
 ---------------------------------------------------------------------

 SCF Done:  E(ROHF) =  -298.912986662     A.U. after    8 cycles
 E2 =    -0.1360029720D+01 EUMP2 =    -0.30027301638231D+03
 CCSD(T)
 CCSD(T)= -0.30015604122D+03

 Unable to determine electronic state:  an orbital has unidentified symmetry.
 Alpha  occ. eigenvalues --  -20.20986 -20.20986 -20.19968 -20.19968  -1.03550
 Alpha  occ. eigenvalues --   -1.03545  -0.65560  -0.65517  -0.21986  -0.21984
 Alpha  occ. eigenvalues --   -0.19293  -0.19256  -0.15496  -0.15256  -0.00433
 Alpha  occ. eigenvalues --   -0.00428   0.19218
 Alpha virt. eigenvalues --    0.28152   0.72724   0.73539   1.12161   1.13088
 Alpha virt. eigenvalues --    1.14487   1.14514   1.15478   1.15505   1.16785
 Alpha virt. eigenvalues --    1.18198   1.22994   1.23086   1.24478   1.24568

 Mulliken charges and spin densities:
               1          2
     1  O   -0.448186   0.000000
     2  O   -0.551814   0.000000
     3  O   -0.551814   0.000000
     4  O   -0.448186   0.000000
 Sum of Mulliken charges =  -2.00000   0.00000

 Dipole moment (field-independent basis, Debye):
    X=             -0.0000    Y=              0.0000    Z=             -0.0000  Tot=              0.0000
 Quadrupole moment (field-independent basis, Debye-Ang):
   XX=            -24.2333   YY=            -25.6617   ZZ=           -126.9817
   XY=              0.0000   XZ=              0.0000   YZ=              0.0000

 CCSD(T)/cc-pVTZ Guess=Read SCF=(VeryTight,CDIIS,VShift=10)\\O2_O2_229\
 5109\CCSD=-300.0157708\CCSD(T)=-300.1560412\RMSD=4.142e-09\PG=D*H [C*(
 Normal termination of Gaussian 16 at Sat Jan 14 22:12:26 2023.
