 Gaussian 16, Revision A.03,
 Gaussian 16:  ES64L-G16RevA.03 25-Dec-2016

 ---------------------------------------------------------------
 #p ROCCSD(T)/cc-pVTZ Guess=Read SCF=(VeryTight,CDIIS,VShift=10)
 ---------------------------------------------------------------

 --------
 O2_O2_48
 --------
 Symbolic Z-matrix:
 Charge = -2 Multiplicity = 1

                         Standard orientation:
 ---------------------------------------------------------------------
 Center     Atomic      Atomic             Coordinates (Angstroms)
 Number     Number       Type             X           Y           Z
 ---------------------------------------------------------------------
      1          8           0        0.000000    0.000000    1.132382
      2          8           0        0.000000    0.000000    2.484762
      3          8           0        0.000000    0.000000   -2.484762
      4          8           0        0.000000    0.000000   -1.132382
 ---------------------------------------------------------------------

 SCF Done:  E(ROHF) =  -298.909334184     A.U. after    9 cycles
 E2 =    -0.1142048074D+01 EUMP2 =    -0.30005138225856D+03
 CCSD(T)
 CCSD(T)= -0.30006862028D+03

 Unable to determine electronic state:  an orbital has unidentified symmetry.
 Alpha  occ. eigenvalues --  -20.17293 -20.17290 -20.12574 -20.12574  -0.98483
 Alpha  occ. eigenvalues --   -0.97752  -0.61614  -0.58146  -0.17131  -0.16418
 Alpha  occ. eigenvalues --   -0.16018  -0.10937  -0.09905  -0.08771   0.04353
 Alpha  occ. eigenvalues --    0.06171   0.19720
 Alpha virt. eigenvalues --    0.39794   0.78213   0.85277   1.16304   1.16651
 Alpha virt. eigenvalues --    1.17851   1.18303   1.21099   1.21968   1.24561
 Alpha virt. eigenvalues --    1.25962   1.33252   1.38948   1.39213   1.40247

 Mulliken charges and spin densities:
               1          2
     1  O   -0.330145   0.000000
     2  O   -0.669855   0.000000
     3  O   -0.669855   0.000000
     4  O   -0.330145   0.000000
 Sum of Mulliken charges =  -2.00000   0.00000

 Dipole moment (field-independent basis, Debye):
    X=             -0.0000    Y=              0.0000    Z=              0.0000  Tot=              0.0000
 Quadrupole moment (field-independent basis, Debye-Ang):
   XX=            -24.4623   YY=            -25.6995   ZZ=            -70.1995
   XY=              0.0000   XZ=              0.0000   YZ=              0.0000

 CCSD(T)/cc-pVTZ Guess=Read SCF=(VeryTight,CDIIS,VShift=10)\\O2_O2_48\\
 869\CCSD=-299.9718187\CCSD(T)=-300.0686203\RMSD=5.344e-09\PG=D*H [C*(O
 Normal termination of Gaussian 16 at Sat Jan 14 18:17:54 2023.
