 Gaussian 16, Revision A.03,
 Gaussian 16:  ES64L-G16RevA.03 25-Dec-2016

 -------------------------------------
 #p CCSD(T)/cc-pVTZ Guess=Read SCF=XQC
 -------------------------------------

 -------
 O2_O2_4
 -------
 Symbolic Z-matrix:
 Charge = -2 Multiplicity = 1

                         Standard orientation:
 ---------------------------------------------------------------------
 Center     Atomic      Atomic             Coordinates (Angstroms)
 Number     Number       Type             X           Y           Z
 ---------------------------------------------------------------------
      1          8           0        0.000000    0.000000    0.820892
      2          8           0        0.000000    0.000000    2.173273
      3          8           0        0.000000    0.000000   -2.173273
      4          8           0        0.000000    0.000000   -0.820892
 ---------------------------------------------------------------------

 SCF Done:  E(RHF) =  -298.859940637     A.U. after   10 cycles
 E2 =    -0.1092119971D+01 EUMP2 =    -0.29995206060813D+03
 CCSD(T)
 CCSD(T)= -0.29997221954D+03

 Unable to determine electronic state:  an orbital has unidentified symmetry.
 Alpha  occ. eigenvalues --  -20.16110 -20.16102 -20.07599 -20.07598  -0.98818
 Alpha  occ. eigenvalues --   -0.94248  -0.66002  -0.51550  -0.19239  -0.17605
 Alpha  occ. eigenvalues --   -0.12284  -0.11103  -0.04900   0.01809   0.05349
 Alpha  occ. eigenvalues --    0.10783   0.17083
 Alpha virt. eigenvalues --    0.47937   0.80607   0.91681   1.17659   1.18624
 Alpha virt. eigenvalues --    1.19726   1.21383   1.23995   1.24736   1.28984
 Alpha virt. eigenvalues --    1.30552   1.38876   1.38903   1.44910   1.46491

 Mulliken charges:
               1
     1  O   -0.214922
     2  O   -0.785078
     3  O   -0.785078
     4  O   -0.214922
 Sum of Mulliken charges =  -2.00000

 Dipole moment (field-independent basis, Debye):
    X=             -0.0000    Y=             -0.0000    Z=             -0.0000  Tot=              0.0000
 Quadrupole moment (field-independent basis, Debye-Ang):
   XX=            -24.4310   YY=            -25.5879   ZZ=            -63.7680
   XY=              0.0000   XZ=              0.0000   YZ=              0.0000

 Normal termination of Gaussian 16 at Wed Jan  4 19:14:45 2023.
