 Gaussian 16, Revision A.03,
 Gaussian 16:  ES64L-G16RevA.03 25-Dec-2016

 ---------------------------------------------------------------
 #p ROCCSD(T)/cc-pVTZ Guess=Read SCF=(VeryTight,CDIIS,VShift=10)
 ---------------------------------------------------------------

 ---------
 O2_O2_257
 ---------
 Symbolic Z-matrix:
 Charge = -2 Multiplicity = 1

                         Standard orientation:
 ---------------------------------------------------------------------
 Center     Atomic      Atomic             Coordinates (Angstroms)
 Number     Number       Type             X           Y           Z
 ---------------------------------------------------------------------
      1          8           0        0.000000    0.000000    2.611954
      2          8           0        0.000000    0.000000    3.964334
      3          8           0        0.000000    0.000000   -3.964334
      4          8           0        0.000000    0.000000   -2.611954
 ---------------------------------------------------------------------

 SCF Done:  E(ROHF) =  -298.915383282     A.U. after    8 cycles
 E2 =    -0.1388681005D+01 EUMP2 =    -0.30030406428748D+03
 CCSD(T)
 CCSD(T)= -0.30016296642D+03

 Unable to determine electronic state:  an orbital has unidentified symmetry.
 Alpha  occ. eigenvalues --  -20.21453 -20.21453 -20.20562 -20.20562  -1.04074
 Alpha  occ. eigenvalues --   -1.04070  -0.66091  -0.66060  -0.22510  -0.22509
 Alpha  occ. eigenvalues --   -0.19827  -0.19814  -0.15996  -0.15799  -0.00962
 Alpha  occ. eigenvalues --   -0.00960   0.18979
 Alpha virt. eigenvalues --    0.27321   0.72423   0.72702   1.11973   1.12303
 Alpha virt. eigenvalues --    1.13986   1.13993   1.14979   1.14986   1.16580
 Alpha virt. eigenvalues --    1.16994   1.22494   1.22517   1.23976   1.23999

 Mulliken charges and spin densities:
               1          2
     1  O   -0.454294   0.000000
     2  O   -0.545706   0.000000
     3  O   -0.545706   0.000000
     4  O   -0.454294   0.000000
 Sum of Mulliken charges =  -2.00000   0.00000

 Dipole moment (field-independent basis, Debye):
    X=             -0.0000    Y=              0.0000    Z=              0.0000  Tot=              0.0000
 Quadrupole moment (field-independent basis, Debye-Ang):
   XX=            -24.2304   YY=            -25.6596   ZZ=           -138.8361
   XY=              0.0000   XZ=              0.0000   YZ=              0.0000

 CCSD(T)/cc-pVTZ Guess=Read SCF=(VeryTight,CDIIS,VShift=10)\\O2_O2_257\
 11\CCSD=-300.0205263\CCSD(T)=-300.1629664\RMSD=3.678e-09\PG=D*H [C*(O1
 Normal termination of Gaussian 16 at Sat Jan 14 22:49:10 2023.
