 Gaussian 16, Revision A.03,
 Gaussian 16:  ES64L-G16RevA.03 25-Dec-2016

 ---------------------------------------------------------------
 #p ROCCSD(T)/cc-pVTZ Guess=Read SCF=(VeryTight,CDIIS,VShift=10)
 ---------------------------------------------------------------

 ---------
 O2_O2_208
 ---------
 Symbolic Z-matrix:
 Charge = -2 Multiplicity = 1

                         Standard orientation:
 ---------------------------------------------------------------------
 Center     Atomic      Atomic             Coordinates (Angstroms)
 Number     Number       Type             X           Y           Z
 ---------------------------------------------------------------------
      1          8           0        0.000000    0.000000    2.265068
      2          8           0        0.000000    0.000000    3.617448
      3          8           0        0.000000    0.000000   -3.617448
      4          8           0        0.000000    0.000000   -2.265068
 ---------------------------------------------------------------------

 SCF Done:  E(ROHF) =  -298.911092425     A.U. after    8 cycles
 E2 =    -0.1338194017D+01 EUMP2 =    -0.30024928644146D+03
 CCSD(T)
 CCSD(T)= -0.30015022374D+03

 Unable to determine electronic state:  an orbital has unidentified symmetry.
 Alpha  occ. eigenvalues --  -20.20603 -20.20603 -20.19468 -20.19467  -1.03115
 Alpha  occ. eigenvalues --   -1.03108  -0.65118  -0.65062  -0.21552  -0.21547
 Alpha  occ. eigenvalues --   -0.18855  -0.18779  -0.15083  -0.14800   0.00006
 Alpha  occ. eigenvalues --    0.00018   0.19410
 Alpha virt. eigenvalues --    0.28856   0.72786   0.74398   1.11985   1.13779
 Alpha virt. eigenvalues --    1.14891   1.14958   1.15882   1.15947   1.16698
 Alpha virt. eigenvalues --    1.19861   1.23369   1.23605   1.24856   1.25088

 Mulliken charges and spin densities:
               1          2
     1  O   -0.442777   0.000000
     2  O   -0.557223   0.000000
     3  O   -0.557223   0.000000
     4  O   -0.442777   0.000000
 Sum of Mulliken charges =  -2.00000   0.00000

 Dipole moment (field-independent basis, Debye):
    X=             -0.0000    Y=              0.0000    Z=             -0.0000  Tot=              0.0000
 Quadrupole moment (field-independent basis, Debye-Ang):
   XX=            -24.2368   YY=            -25.6638   ZZ=           -118.6091
   XY=              0.0000   XZ=              0.0000   YZ=              0.0000

 CCSD(T)/cc-pVTZ Guess=Read SCF=(VeryTight,CDIIS,VShift=10)\\O2_O2_208\
 151\CCSD=-300.0118507\CCSD(T)=-300.1502237\RMSD=3.798e-09\PG=D*H [C*(O
 Normal termination of Gaussian 16 at Sat Jan 14 21:43:05 2023.
