 Gaussian 16, Revision A.03,
 Gaussian 16:  ES64L-G16RevA.03 25-Dec-2016

 ---------------------------------------------------------------
 #p ROCCSD(T)/cc-pVTZ Guess=Read SCF=(VeryTight,CDIIS,VShift=10)
 ---------------------------------------------------------------

 ---------
 O2_O2_159
 ---------
 Symbolic Z-matrix:
 Charge = -2 Multiplicity = 1

                         Standard orientation:
 ---------------------------------------------------------------------
 Center     Atomic      Atomic             Coordinates (Angstroms)
 Number     Number       Type             X           Y           Z
 ---------------------------------------------------------------------
      1          8           0        0.000000    0.000000    1.918183
      2          8           0        0.000000    0.000000    3.270563
      3          8           0        0.000000    0.000000   -3.270563
      4          8           0        0.000000    0.000000   -1.918183
 ---------------------------------------------------------------------

 SCF Done:  E(ROHF) =  -298.906850499     A.U. after    8 cycles
 E2 =    -0.1285115062D+01 EUMP2 =    -0.30019196556107D+03
 CCSD(T)
 CCSD(T)= -0.30013398783D+03

 Unable to determine electronic state:  an orbital has unidentified symmetry.
 Alpha  occ. eigenvalues --  -20.19620 -20.19620 -20.18073 -20.18073  -1.01939
 Alpha  occ. eigenvalues --   -1.01919  -0.63938  -0.63792  -0.20384  -0.20355
 Alpha  occ. eigenvalues --   -0.17731  -0.17392  -0.13982  -0.13540   0.01176
 Alpha  occ. eigenvalues --    0.01252   0.19870
 Alpha virt. eigenvalues --    0.30865   0.72229   0.77248   1.09465   1.15145
 Alpha virt. eigenvalues --    1.15843   1.16275   1.16417   1.16847   1.17253
 Alpha virt. eigenvalues --    1.23965   1.25468   1.25509   1.26993   1.29537

 Mulliken charges and spin densities:
               1          2
     1  O   -0.426205   0.000000
     2  O   -0.573795   0.000000
     3  O   -0.573795   0.000000
     4  O   -0.426205   0.000000
 Sum of Mulliken charges =  -2.00000   0.00000

 Dipole moment (field-independent basis, Debye):
    X=             -0.0000    Y=              0.0000    Z=              0.0000  Tot=              0.0000
 Quadrupole moment (field-independent basis, Debye-Ang):
   XX=            -24.2563   YY=            -25.6708   ZZ=           -100.8124
   XY=              0.0000   XZ=              0.0000   YZ=              0.0000

 CCSD(T)/cc-pVTZ Guess=Read SCF=(VeryTight,CDIIS,VShift=10)\\O2_O2_159\
 8769\CCSD=-300.0015601\CCSD(T)=-300.1339878\RMSD=6.126e-09\PG=D*H [C*(
 Normal termination of Gaussian 16 at Sat Jan 14 20:37:05 2023.
