 Gaussian 16, Revision A.03,
 Gaussian 16:  ES64L-G16RevA.03 25-Dec-2016

 -------------------------------------
 #p CCSD(T)/cc-pVTZ Guess=Read SCF=XQC
 -------------------------------------

 ---------
 O2_O2_230
 ---------
 Symbolic Z-matrix:
 Charge = -2 Multiplicity = 1

                         Standard orientation:
 ---------------------------------------------------------------------
 Center     Atomic      Atomic             Coordinates (Angstroms)
 Number     Number       Type             X           Y           Z
 ---------------------------------------------------------------------
      1          8           0        0.000000    0.000000    2.420813
      2          8           0        0.000000    0.000000    3.773193
      3          8           0        0.000000    0.000000   -3.773193
      4          8           0        0.000000    0.000000   -2.420813
 ---------------------------------------------------------------------

 SCF Done:  E(RHF) =  -298.913075262     A.U. after    8 cycles
 E2 =    -0.1361060810D+01 EUMP2 =    -0.30027413607130D+03
 CCSD(T)
 CCSD(T)= -0.30015630414D+03

 Unable to determine electronic state:  an orbital has unidentified symmetry.
 Alpha  occ. eigenvalues --  -20.21003 -20.21003 -20.19990 -20.19990  -1.03570
 Alpha  occ. eigenvalues --   -1.03565  -0.65580  -0.65538  -0.22006  -0.22004
 Alpha  occ. eigenvalues --   -0.19313  -0.19277  -0.15515  -0.15276  -0.00453
 Alpha  occ. eigenvalues --   -0.00448   0.19209
 Alpha virt. eigenvalues --    0.28120   0.72717   0.73503   1.12161   1.13056
 Alpha virt. eigenvalues --    1.14468   1.14494   1.15460   1.15485   1.16783
 Alpha virt. eigenvalues --    1.18139   1.22976   1.23064   1.24459   1.24546

 Mulliken charges:
               1
     1  O   -0.448425
     2  O   -0.551575
     3  O   -0.551575
     4  O   -0.448425
 Sum of Mulliken charges =  -2.00000

 Dipole moment (field-independent basis, Debye):
    X=             -0.0000    Y=             -0.0000    Z=             -0.0000  Tot=              0.0000
 Quadrupole moment (field-independent basis, Debye-Ang):
   XX=            -24.2332   YY=            -25.6616   ZZ=           -127.3915
   XY=              0.0000   XZ=              0.0000   YZ=              0.0000

 Normal termination of Gaussian 16 at Wed Jan  4 21:23:02 2023.
