 Gaussian 16, Revision A.03,
 Gaussian 16:  ES64L-G16RevA.03 25-Dec-2016

 -------------------------------------
 #p CCSD(T)/cc-pVTZ Guess=Read SCF=XQC
 -------------------------------------

 ---------
 O2_O2_203
 ---------
 Symbolic Z-matrix:
 Charge = -2 Multiplicity = 1

                         Standard orientation:
 ---------------------------------------------------------------------
 Center     Atomic      Atomic             Coordinates (Angstroms)
 Number     Number       Type             X           Y           Z
 ---------------------------------------------------------------------
      1          8           0        0.000000    0.000000    2.229671
      2          8           0        0.000000    0.000000    3.582052
      3          8           0        0.000000    0.000000   -3.582052
      4          8           0        0.000000    0.000000   -2.229671
 ---------------------------------------------------------------------

 SCF Done:  E(RHF) =  -298.910636392     A.U. after    8 cycles
 E2 =    -0.1332933807D+01 EUMP2 =    -0.30024357019897D+03
 CCSD(T)
 CCSD(T)= -0.30014874823D+03

 Unable to determine electronic state:  an orbital has unidentified symmetry.
 Alpha  occ. eigenvalues --  -20.20508 -20.20508 -20.19341 -20.19341  -1.03005
 Alpha  occ. eigenvalues --   -1.02998  -0.65008  -0.64946  -0.21443  -0.21437
 Alpha  occ. eigenvalues --   -0.18746  -0.18657  -0.14980  -0.14685   0.00116
 Alpha  occ. eigenvalues --    0.00131   0.19457
 Alpha virt. eigenvalues --    0.29036   0.72771   0.74638   1.11872   1.13945
 Alpha virt. eigenvalues --    1.14989   1.15072   1.15981   1.16061   1.16651
 Alpha virt. eigenvalues --    1.20418   1.23454   1.23746   1.24942   1.25229

 Mulliken charges:
               1
     1  O   -0.441366
     2  O   -0.558634
     3  O   -0.558634
     4  O   -0.441366
 Sum of Mulliken charges =  -2.00000

 Dipole moment (field-independent basis, Debye):
    X=             -0.0000    Y=              0.0000    Z=              0.0000  Tot=              0.0000
 Quadrupole moment (field-independent basis, Debye-Ang):
   XX=            -24.2379   YY=            -25.6644   ZZ=           -116.6812
   XY=              0.0000   XZ=              0.0000   YZ=              0.0000

 Normal termination of Gaussian 16 at Wed Jan  4 21:07:37 2023.
