 Gaussian 16, Revision A.03,
 Gaussian 16:  ES64L-G16RevA.03 25-Dec-2016

 -------------------------------------
 #p CCSD(T)/cc-pVTZ Guess=Read SCF=XQC
 -------------------------------------

 --------
 O2_O2_66
 --------
 Symbolic Z-matrix:
 Charge = -2 Multiplicity = 1

                         Standard orientation:
 ---------------------------------------------------------------------
 Center     Atomic      Atomic             Coordinates (Angstroms)
 Number     Number       Type             X           Y           Z
 ---------------------------------------------------------------------
      1          8           0        0.000000    0.000000    1.259809
      2          8           0        0.000000    0.000000    2.612189
      3          8           0        0.000000    0.000000   -2.612189
      4          8           0        0.000000    0.000000   -1.259809
 ---------------------------------------------------------------------

 SCF Done:  E(RHF) =  -298.907855342     A.U. after    9 cycles
 E2 =    -0.1167374579D+01 EUMP2 =    -0.30007522992088D+03
 CCSD(T)
 CCSD(T)= -0.30008473346D+03

 Unable to determine electronic state:  an orbital has unidentified symmetry.
 Alpha  occ. eigenvalues --  -20.17687 -20.17686 -20.13872 -20.13872  -0.99064
 Alpha  occ. eigenvalues --   -0.98689  -0.61615  -0.59655  -0.17636  -0.17015
 Alpha  occ. eigenvalues --   -0.16157  -0.12102  -0.11415  -0.09859   0.03838
 Alpha  occ. eigenvalues --    0.04981   0.20082
 Alpha virt. eigenvalues --    0.37571   0.76832   0.83698   1.15952   1.16201
 Alpha virt. eigenvalues --    1.17485   1.17683   1.20174   1.21078   1.23828
 Alpha virt. eigenvalues --    1.24203   1.25238   1.36308   1.37790   1.38635

 Mulliken charges:
               1
     1  O   -0.357434
     2  O   -0.642566
     3  O   -0.642566
     4  O   -0.357434
 Sum of Mulliken charges =  -2.00000

 Dipole moment (field-independent basis, Debye):
    X=             -0.0000    Y=             -0.0000    Z=             -0.0000  Tot=              0.0000
 Quadrupole moment (field-independent basis, Debye-Ang):
   XX=            -24.4136   YY=            -25.6964   ZZ=            -74.1102
   XY=              0.0000   XZ=              0.0000   YZ=              0.0000

 7765\MP4DQ=-299.9508285\MP4SDQ=-299.9773226\CCSD=-299.9786082\CCSD(T)=
 Normal termination of Gaussian 16 at Wed Jan  4 19:49:22 2023.
