 Gaussian 16, Revision A.03,
 Gaussian 16:  ES64L-G16RevA.03 25-Dec-2016

 -------------------------------------
 #p CCSD(T)/cc-pVTZ Guess=Read SCF=XQC
 -------------------------------------

 ---------
 O2_O2_225
 ---------
 Symbolic Z-matrix:
 Charge = -2 Multiplicity = 1

                         Standard orientation:
 ---------------------------------------------------------------------
 Center     Atomic      Atomic             Coordinates (Angstroms)
 Number     Number       Type             X           Y           Z
 ---------------------------------------------------------------------
      1          8           0        0.000000    0.000000    2.385416
      2          8           0        0.000000    0.000000    3.737796
      3          8           0        0.000000    0.000000   -3.737796
      4          8           0        0.000000    0.000000   -2.385416
 ---------------------------------------------------------------------

 SCF Done:  E(RHF) =  -298.912630460     A.U. after    8 cycles
 E2 =    -0.1355898420D+01 EUMP2 =    -0.30026852888017D+03
 CCSD(T)
 CCSD(T)= -0.30015497743D+03

 Unable to determine electronic state:  an orbital has unidentified symmetry.
 Alpha  occ. eigenvalues --  -20.20915 -20.20915 -20.19876 -20.19876  -1.03470
 Alpha  occ. eigenvalues --   -1.03465  -0.65479  -0.65434  -0.21907  -0.21904
 Alpha  occ. eigenvalues --   -0.19212  -0.19169  -0.15420  -0.15172  -0.00352
 Alpha  occ. eigenvalues --   -0.00346   0.19254
 Alpha virt. eigenvalues --    0.28280   0.72750   0.73685   1.12157   1.13215
 Alpha virt. eigenvalues --    1.14562   1.14594   1.15553   1.15585   1.16785
 Alpha virt. eigenvalues --    1.18446   1.23066   1.23177   1.24551   1.24660

 Mulliken charges:
               1
     1  O   -0.447216
     2  O   -0.552784
     3  O   -0.552784
     4  O   -0.447216
 Sum of Mulliken charges =  -2.00000

 Dipole moment (field-independent basis, Debye):
    X=             -0.0000    Y=              0.0000    Z=              0.0000  Tot=              0.0000
 Quadrupole moment (field-independent basis, Debye-Ang):
   XX=            -24.2338   YY=            -25.6621   ZZ=           -125.3527
   XY=              0.0000   XZ=              0.0000   YZ=              0.0000

 Normal termination of Gaussian 16 at Wed Jan  4 21:20:08 2023.
