 Gaussian 16, Revision A.03,
 Gaussian 16:  ES64L-G16RevA.03 25-Dec-2016

 -------------------------------------
 #p CCSD(T)/cc-pVTZ Guess=Read SCF=XQC
 -------------------------------------

 --------
 O2_O2_28
 --------
 Symbolic Z-matrix:
 Charge = -2 Multiplicity = 1

                         Standard orientation:
 ---------------------------------------------------------------------
 Center     Atomic      Atomic             Coordinates (Angstroms)
 Number     Number       Type             X           Y           Z
 ---------------------------------------------------------------------
      1          8           0        0.000000    0.000000    0.990795
      2          8           0        0.000000    0.000000    2.343176
      3          8           0        0.000000    0.000000   -2.343176
      4          8           0        0.000000    0.000000   -0.990795
 ---------------------------------------------------------------------

 SCF Done:  E(RHF) =  -298.904629811     A.U. after    9 cycles
 E2 =    -0.1115173070D+01 EUMP2 =    -0.30001980288137D+03
 CCSD(T)
 CCSD(T)= -0.30004158872D+03

 Unable to determine electronic state:  an orbital has unidentified symmetry.
 Alpha  occ. eigenvalues --  -20.16767 -20.16764 -20.10738 -20.10738  -0.98033
 Alpha  occ. eigenvalues --   -0.96434  -0.62436  -0.55804  -0.17278  -0.16800
 Alpha  occ. eigenvalues --   -0.14611  -0.10580  -0.07282  -0.06191   0.04863
 Alpha  occ. eigenvalues --    0.07887   0.18913
 Alpha virt. eigenvalues --    0.42932   0.79565   0.87507   1.16963   1.17928
 Alpha virt. eigenvalues --    1.17957   1.19690   1.22257   1.23073   1.26031
 Alpha virt. eigenvalues --    1.27509   1.39127   1.39426   1.42128   1.43631

 Mulliken charges:
               1
     1  O   -0.289074
     2  O   -0.710926
     3  O   -0.710926
     4  O   -0.289074
 Sum of Mulliken charges =  -2.00000

 Dipole moment (field-independent basis, Debye):
    X=             -0.0000    Y=              0.0000    Z=              0.0000  Tot=              0.0000
 Quadrupole moment (field-independent basis, Debye-Ang):
   XX=            -24.4956   YY=            -25.6849   ZZ=            -66.5831
   XY=              0.0000   XZ=              0.0000   YZ=              0.0000

 Normal termination of Gaussian 16 at Wed Jan  4 19:27:32 2023.
