 Gaussian 16, Revision A.03,
 Gaussian 16:  ES64L-G16RevA.03 25-Dec-2016

 ---------------------------------------------------------------
 #p ROCCSD(T)/cc-pVTZ Guess=Read SCF=(VeryTight,CDIIS,VShift=10)
 ---------------------------------------------------------------

 --------
 O2_O2_47
 --------
 Symbolic Z-matrix:
 Charge = -2 Multiplicity = 1

                         Standard orientation:
 ---------------------------------------------------------------------
 Center     Atomic      Atomic             Coordinates (Angstroms)
 Number     Number       Type             X           Y           Z
 ---------------------------------------------------------------------
      1          8           0        0.000000    0.000000    1.125302
      2          8           0        0.000000    0.000000    2.477682
      3          8           0        0.000000    0.000000   -2.477682
      4          8           0        0.000000    0.000000   -1.125302
 ---------------------------------------------------------------------

 SCF Done:  E(ROHF) =  -298.909338563     A.U. after    9 cycles
 E2 =    -0.1140651398D+01 EUMP2 =    -0.30004998996163D+03
 CCSD(T)
 CCSD(T)= -0.30006756350D+03

 Unable to determine electronic state:  an orbital has unidentified symmetry.
 Alpha  occ. eigenvalues --  -20.17269 -20.17267 -20.12494 -20.12494  -0.98454
 Alpha  occ. eigenvalues --   -0.97694  -0.61629  -0.58048  -0.17107  -0.16445
 Alpha  occ. eigenvalues --   -0.15956  -0.10914  -0.09757  -0.08704   0.04380
 Alpha  occ. eigenvalues --    0.06246   0.19691
 Alpha virt. eigenvalues --    0.39932   0.78285   0.85374   1.16330   1.16695
 Alpha virt. eigenvalues --    1.17861   1.18356   1.21153   1.22020   1.24617
 Alpha virt. eigenvalues --    1.26018   1.33774   1.38962   1.39368   1.40305

 Mulliken charges and spin densities:
               1          2
     1  O   -0.328376   0.000000
     2  O   -0.671624   0.000000
     3  O   -0.671624   0.000000
     4  O   -0.328376   0.000000
 Sum of Mulliken charges =  -2.00000   0.00000

 Dipole moment (field-independent basis, Debye):
    X=             -0.0000    Y=              0.0000    Z=             -0.0000  Tot=              0.0000
 Quadrupole moment (field-independent basis, Debye-Ang):
   XX=            -24.4648   YY=            -25.6994   ZZ=            -69.9986
   XY=              0.0000   XZ=              0.0000   YZ=              0.0000

 CCSD(T)/cc-pVTZ Guess=Read SCF=(VeryTight,CDIIS,VShift=10)\\O2_O2_47\\
 CCSD=-299.9713245\CCSD(T)=-300.0675635\RMSD=5.500e-09\PG=D*H [C*(O1O1.
 Normal termination of Gaussian 16 at Sat Jan 14 18:16:45 2023.
