 Gaussian 16, Revision A.03,
 Gaussian 16:  ES64L-G16RevA.03 25-Dec-2016

 -------------------------------------
 #p CCSD(T)/cc-pVTZ Guess=Read SCF=XQC
 -------------------------------------

 --------
 O2_O2_82
 --------
 Symbolic Z-matrix:
 Charge = -2 Multiplicity = 1

                         Standard orientation:
 ---------------------------------------------------------------------
 Center     Atomic      Atomic             Coordinates (Angstroms)
 Number     Number       Type             X           Y           Z
 ---------------------------------------------------------------------
      1          8           0        0.000000    0.000000    1.373078
      2          8           0        0.000000    0.000000    2.725458
      3          8           0        0.000000    0.000000   -2.725458
      4          8           0        0.000000    0.000000   -1.373078
 ---------------------------------------------------------------------

 SCF Done:  E(RHF) =  -298.906137976     A.U. after    9 cycles
 E2 =    -0.1189580809D+01 EUMP2 =    -0.30009571878502D+03
 CCSD(T)
 CCSD(T)= -0.30009607916D+03

 Unable to determine electronic state:  an orbital has unidentified symmetry.
 Alpha  occ. eigenvalues --  -20.18014 -20.18013 -20.14835 -20.14835  -0.99606
 Alpha  occ. eigenvalues --   -0.99393  -0.61885  -0.60690  -0.18130  -0.17759
 Alpha  occ. eigenvalues --   -0.16198  -0.13529  -0.11877  -0.10684   0.03363
 Alpha  occ. eigenvalues --    0.04112   0.20221
 Alpha virt. eigenvalues --    0.35950   0.75482   0.82479   1.15818   1.15923
 Alpha virt. eigenvalues --    1.16204   1.17529   1.18897   1.19404   1.20329
 Alpha virt. eigenvalues --    1.23544   1.24994   1.33702   1.35185   1.38292

 Mulliken charges:
               1
     1  O   -0.375864
     2  O   -0.624136
     3  O   -0.624136
     4  O   -0.375864
 Sum of Mulliken charges =  -2.00000

 Dipole moment (field-independent basis, Debye):
    X=             -0.0000    Y=              0.0000    Z=             -0.0000  Tot=              0.0000
 Quadrupole moment (field-independent basis, Debye-Ang):
   XX=            -24.3712   YY=            -25.6910   ZZ=            -77.9884
   XY=              0.0000   XZ=              0.0000   YZ=              0.0000

 Normal termination of Gaussian 16 at Wed Jan  4 19:58:23 2023.
