 Gaussian 16, Revision A.03,
 Gaussian 16:  ES64L-G16RevA.03 25-Dec-2016

 -------------------------------------
 #p CCSD(T)/cc-pVTZ Guess=Read SCF=XQC
 -------------------------------------

 ---------
 O2_O2_215
 ---------
 Symbolic Z-matrix:
 Charge = -2 Multiplicity = 1

                         Standard orientation:
 ---------------------------------------------------------------------
 Center     Atomic      Atomic             Coordinates (Angstroms)
 Number     Number       Type             X           Y           Z
 ---------------------------------------------------------------------
      1          8           0        0.000000    0.000000    2.314623
      2          8           0        0.000000    0.000000    3.667003
      3          8           0        0.000000    0.000000   -3.667003
      4          8           0        0.000000    0.000000   -2.314623
 ---------------------------------------------------------------------

 SCF Done:  E(RHF) =  -298.911729300     A.U. after    8 cycles
 E2 =    -0.1345515350D+01 EUMP2 =    -0.30025724465024D+03
 CCSD(T)
 CCSD(T)= -0.30015222875D+03

 Unable to determine electronic state:  an orbital has unidentified symmetry.
 Alpha  occ. eigenvalues --  -20.20734 -20.20733 -20.19640 -20.19640  -1.03264
 Alpha  occ. eigenvalues --   -1.03258  -0.65270  -0.65219  -0.21701  -0.21697
 Alpha  occ. eigenvalues --   -0.19004  -0.18945  -0.15225  -0.14957  -0.00145
 Alpha  occ. eigenvalues --   -0.00135   0.19345
 Alpha virt. eigenvalues --    0.28613   0.72786   0.74086   1.12091   1.13545
 Alpha virt. eigenvalues --    1.14754   1.14804   1.15745   1.15794   1.16750
 Alpha virt. eigenvalues --    1.19198   1.23246   1.23420   1.24732   1.24903

 Mulliken charges:
               1
     1  O   -0.444669
     2  O   -0.555331
     3  O   -0.555331
     4  O   -0.444669
 Sum of Mulliken charges =  -2.00000

 Dipole moment (field-independent basis, Debye):
    X=             -0.0000    Y=              0.0000    Z=             -0.0000  Tot=              0.0000
 Quadrupole moment (field-independent basis, Debye-Ang):
   XX=            -24.2355   YY=            -25.6630   ZZ=           -121.3506
   XY=              0.0000   XZ=              0.0000   YZ=              0.0000

 Normal termination of Gaussian 16 at Wed Jan  4 21:14:31 2023.
