 Gaussian 16, Revision A.03,
 Gaussian 16:  ES64L-G16RevA.03 25-Dec-2016

 -------------------------------------
 #p CCSD(T)/cc-pVTZ Guess=Read SCF=XQC
 -------------------------------------

 ---------
 O2_O2_266
 ---------
 Symbolic Z-matrix:
 Charge = -2 Multiplicity = 1

                         Standard orientation:
 ---------------------------------------------------------------------
 Center     Atomic      Atomic             Coordinates (Angstroms)
 Number     Number       Type             X           Y           Z
 ---------------------------------------------------------------------
      1          8           0        0.000000    0.000000    2.675667
      2          8           0        0.000000    0.000000    4.028047
      3          8           0        0.000000    0.000000   -4.028047
      4          8           0        0.000000    0.000000   -2.675667
 ---------------------------------------------------------------------

 SCF Done:  E(RHF) =  -298.916112004     A.U. after    8 cycles
 E2 =    -0.1397814034D+01 EUMP2 =    -0.30031392603817D+03
 CCSD(T)
 CCSD(T)= -0.30016501419D+03

 Unable to determine electronic state:  an orbital has unidentified symmetry.
 Alpha  occ. eigenvalues --  -20.21594 -20.21593 -20.20737 -20.20737  -1.04230
 Alpha  occ. eigenvalues --   -1.04227  -0.66249  -0.66220  -0.22665  -0.22665
 Alpha  occ. eigenvalues --   -0.19987  -0.19977  -0.16145  -0.15960  -0.01119
 Alpha  occ. eigenvalues --   -0.01118   0.18907
 Alpha virt. eigenvalues --    0.27076   0.72297   0.72488   1.11866   1.12094
 Alpha virt. eigenvalues --    1.13836   1.13840   1.14829   1.14834   1.16461
 Alpha virt. eigenvalues --    1.16732   1.22340   1.22354   1.23821   1.23836

 Mulliken charges:
               1
     1  O   -0.456031
     2  O   -0.543969
     3  O   -0.543969
     4  O   -0.456031
 Sum of Mulliken charges =  -2.00000

 Dipole moment (field-independent basis, Debye):
    X=             -0.0000    Y=              0.0000    Z=             -0.0000  Tot=              0.0000
 Quadrupole moment (field-independent basis, Debye-Ang):
   XX=            -24.2297   YY=            -25.6590   ZZ=           -142.8137
   XY=              0.0000   XZ=              0.0000   YZ=              0.0000

 9832\MP4DQ=-299.3376075\MP4SDQ=-299.3796718\CCSD=-300.0219454\CCSD(T)=
 Normal termination of Gaussian 16 at Wed Jan  4 21:44:21 2023.
