 Gaussian 16, Revision A.03,
 Gaussian 16:  ES64L-G16RevA.03 25-Dec-2016

 -------------------------------------
 #p CCSD(T)/cc-pVTZ Guess=Read SCF=XQC
 -------------------------------------

 ---------
 O2_O2_284
 ---------
 Symbolic Z-matrix:
 Charge = -2 Multiplicity = 1

                         Standard orientation:
 ---------------------------------------------------------------------
 Center     Atomic      Atomic             Coordinates (Angstroms)
 Number     Number       Type             X           Y           Z
 ---------------------------------------------------------------------
      1          8           0        0.000000    0.000000    2.803094
      2          8           0        0.000000    0.000000    4.155474
      3          8           0        0.000000    0.000000   -4.155474
      4          8           0        0.000000    0.000000   -2.803094
 ---------------------------------------------------------------------

 SCF Done:  E(RHF) =  -298.917504891     A.U. after    8 cycles
 E2 =    -0.1416001556D+01 EUMP2 =    -0.30033350644631D+03
 CCSD(T)
 CCSD(T)= -0.30016888222D+03

 Unable to determine electronic state:  an orbital has unidentified symmetry.
 Alpha  occ. eigenvalues --  -20.21860 -20.21860 -20.21067 -20.21067  -1.04524
 Alpha  occ. eigenvalues --   -1.04522  -0.66548  -0.66523  -0.22960  -0.22959
 Alpha  occ. eigenvalues --   -0.20290  -0.20285  -0.16428  -0.16263  -0.01417
 Alpha  occ. eigenvalues --   -0.01416   0.18768
 Alpha virt. eigenvalues --    0.26615   0.72030   0.72115   1.11625   1.11730
 Alpha virt. eigenvalues --    1.13549   1.13551   1.14543   1.14545   1.16191
 Alpha virt. eigenvalues --    1.16302   1.22045   1.22050   1.23525   1.23531

 Mulliken charges:
               1
     1  O   -0.459222
     2  O   -0.540778
     3  O   -0.540778
     4  O   -0.459222
 Sum of Mulliken charges =  -2.00000

 Dipole moment (field-independent basis, Debye):
    X=             -0.0000    Y=             -0.0000    Z=             -0.0000  Tot=              0.0000
 Quadrupole moment (field-independent basis, Debye-Ang):
   XX=            -24.2285   YY=            -25.6580   ZZ=           -151.0120
   XY=              0.0000   XZ=              0.0000   YZ=              0.0000

 Normal termination of Gaussian 16 at Wed Jan  4 21:55:03 2023.
