 Gaussian 16, Revision A.03,
 Gaussian 16:  ES64L-G16RevA.03 25-Dec-2016

 ---------------------------------------------------------------
 #p ROCCSD(T)/cc-pVTZ Guess=Read SCF=(VeryTight,CDIIS,VShift=10)
 ---------------------------------------------------------------

 ---------
 O2_O2_174
 ---------
 Symbolic Z-matrix:
 Charge = -2 Multiplicity = 1

                         Standard orientation:
 ---------------------------------------------------------------------
 Center     Atomic      Atomic             Coordinates (Angstroms)
 Number     Number       Type             X           Y           Z
 ---------------------------------------------------------------------
      1          8           0        0.000000    0.000000    2.024372
      2          8           0        0.000000    0.000000    3.376752
      3          8           0        0.000000    0.000000   -3.376752
      4          8           0        0.000000    0.000000   -2.024372
 ---------------------------------------------------------------------

 SCF Done:  E(ROHF) =  -298.908055435     A.U. after    8 cycles
 E2 =    -0.1301783699D+01 EUMP2 =    -0.30020983913427D+03
 CCSD(T)
 CCSD(T)= -0.30013941753D+03

 Unable to determine electronic state:  an orbital has unidentified symmetry.
 Alpha  occ. eigenvalues --  -20.19931 -20.19931 -20.18538 -20.18538  -1.02324
 Alpha  occ. eigenvalues --   -1.02310  -0.64322  -0.64217  -0.20765  -0.20748
 Alpha  occ. eigenvalues --   -0.18087  -0.17867  -0.14340  -0.13959   0.00796
 Alpha  occ. eigenvalues --    0.00842   0.19731
 Alpha virt. eigenvalues --    0.30184   0.72454   0.76275   1.10484   1.14801
 Alpha virt. eigenvalues --    1.15564   1.15820   1.16403   1.16560   1.16803
 Alpha virt. eigenvalues --    1.23859   1.24772   1.25355   1.25446   1.26256

 Mulliken charges and spin densities:
               1          2
     1  O   -0.432017   0.000000
     2  O   -0.567983   0.000000
     3  O   -0.567983   0.000000
     4  O   -0.432017   0.000000
 Sum of Mulliken charges =  -2.00000   0.00000

 Dipole moment (field-independent basis, Debye):
    X=             -0.0000    Y=             -0.0000    Z=             -0.0000  Tot=              0.0000
 Quadrupole moment (field-independent basis, Debye-Ang):
   XX=            -24.2478   YY=            -25.6683   ZZ=           -105.9993
   XY=              0.0000   XZ=              0.0000   YZ=              0.0000

 CCSD(T)/cc-pVTZ Guess=Read SCF=(VeryTight,CDIIS,VShift=10)\\O2_O2_174\
 9824\CCSD=-300.0048688\CCSD(T)=-300.1394175\RMSD=3.902e-09\PG=D*H [C*(
 Normal termination of Gaussian 16 at Sat Jan 14 20:56:56 2023.
