 Gaussian 16, Revision A.03,
 Gaussian 16:  ES64L-G16RevA.03 25-Dec-2016

 ---------------------------------------------------------------
 #p ROCCSD(T)/cc-pVTZ Guess=Read SCF=(VeryTight,CDIIS,VShift=10)
 ---------------------------------------------------------------

 ---------
 O2_O2_139
 ---------
 Symbolic Z-matrix:
 Charge = -2 Multiplicity = 1

                         Standard orientation:
 ---------------------------------------------------------------------
 Center     Atomic      Atomic             Coordinates (Angstroms)
 Number     Number       Type             X           Y           Z
 ---------------------------------------------------------------------
      1          8           0        0.000000    0.000000    1.776597
      2          8           0        0.000000    0.000000    3.128977
      3          8           0        0.000000    0.000000   -3.128977
      4          8           0        0.000000    0.000000   -1.776597
 ---------------------------------------------------------------------

 SCF Done:  E(ROHF) =  -298.905546224     A.U. after    8 cycles
 E2 =    -0.1262086747D+01 EUMP2 =    -0.30016763297094D+03
 CCSD(T)
 CCSD(T)= -0.30012595911D+03

 Unable to determine electronic state:  an orbital has unidentified symmetry.
 Alpha  occ. eigenvalues --  -20.19198 -20.19197 -20.17387 -20.17387  -1.01391
 Alpha  occ. eigenvalues --   -1.01356  -0.63400  -0.63163  -0.19844  -0.19786
 Alpha  occ. eigenvalues --   -0.17255  -0.16664  -0.13476  -0.12926   0.01710
 Alpha  occ. eigenvalues --    0.01855   0.20040
 Alpha virt. eigenvalues --    0.31889   0.72175   0.78598   1.08573   1.15490
 Alpha virt. eigenvalues --    1.16156   1.16624   1.16968   1.17183   1.17938
 Alpha virt. eigenvalues --    1.23943   1.25456   1.26833   1.28318   1.36046

 Mulliken charges and spin densities:
               1          2
     1  O   -0.417040   0.000000
     2  O   -0.582960   0.000000
     3  O   -0.582960   0.000000
     4  O   -0.417040   0.000000
 Sum of Mulliken charges =  -2.00000   0.00000

 Dipole moment (field-independent basis, Debye):
    X=             -0.0000    Y=              0.0000    Z=             -0.0000  Tot=              0.0000
 Quadrupole moment (field-independent basis, Debye-Ang):
   XX=            -24.2729   YY=            -25.6748   ZZ=            -94.2638
   XY=              0.0000   XZ=              0.0000   YZ=              0.0000

 CCSD(T)/cc-pVTZ Guess=Read SCF=(VeryTight,CDIIS,VShift=10)\\O2_O2_139\
 4\CCSD=-299.9969605\CCSD(T)=-300.1259591\RMSD=9.577e-09\PG=D*H [C*(O1O
 Normal termination of Gaussian 16 at Sat Jan 14 20:11:11 2023.
