 Gaussian 16, Revision A.03,
 Gaussian 16:  ES64L-G16RevA.03 25-Dec-2016

 -------------------------------------
 #p CCSD(T)/cc-pVTZ Guess=Read SCF=XQC
 -------------------------------------

 --------
 O2_O2_54
 --------
 Symbolic Z-matrix:
 Charge = -2 Multiplicity = 1

                         Standard orientation:
 ---------------------------------------------------------------------
 Center     Atomic      Atomic             Coordinates (Angstroms)
 Number     Number       Type             X           Y           Z
 ---------------------------------------------------------------------
      1          8           0        0.000000    0.000000    1.174857
      2          8           0        0.000000    0.000000    2.527237
      3          8           0        0.000000    0.000000   -2.527237
      4          8           0        0.000000    0.000000   -1.174857
 ---------------------------------------------------------------------

 SCF Done:  E(RHF) =  -298.909063842     A.U. after    9 cycles
 E2 =    -0.1150472122D+01 EUMP2 =    -0.30005953596445D+03
 CCSD(T)
 CCSD(T)= -0.30007454226D+03

 Unable to determine electronic state:  an orbital has unidentified symmetry.
 Alpha  occ. eigenvalues --  -20.17430 -20.17428 -20.13037 -20.13037  -0.98669
 Alpha  occ. eigenvalues --   -0.98085  -0.61563  -0.58700  -0.17288  -0.16373
 Alpha  occ. eigenvalues --   -0.16286  -0.11088  -0.10727  -0.09156   0.04185
 Alpha  occ. eigenvalues --    0.05744   0.19871
 Alpha virt. eigenvalues --    0.38998   0.77771   0.84719   1.16163   1.16429
 Alpha virt. eigenvalues --    1.17778   1.18028   1.20782   1.21664   1.24263
 Alpha virt. eigenvalues --    1.25660   1.30094   1.38264   1.38855   1.39747

 Mulliken charges:
               1
     1  O   -0.340171
     2  O   -0.659829
     3  O   -0.659829
     4  O   -0.340171
 Sum of Mulliken charges =  -2.00000

 Dipole moment (field-independent basis, Debye):
    X=             -0.0000    Y=              0.0000    Z=             -0.0000  Tot=              0.0000
 Quadrupole moment (field-independent basis, Debye-Ang):
   XX=            -24.4467   YY=            -25.6993   ZZ=            -71.4431
   XY=              0.0000   XZ=              0.0000   YZ=              0.0000

 Normal termination of Gaussian 16 at Wed Jan  4 19:42:13 2023.
