 Gaussian 16, Revision A.03,
 Gaussian 16:  ES64L-G16RevA.03 25-Dec-2016

 ---------------------------------------------------------------
 #p ROCCSD(T)/cc-pVTZ Guess=Read SCF=(VeryTight,CDIIS,VShift=10)
 ---------------------------------------------------------------

 ---------
 O2_O2_130
 ---------
 Symbolic Z-matrix:
 Charge = -2 Multiplicity = 1

                         Standard orientation:
 ---------------------------------------------------------------------
 Center     Atomic      Atomic             Coordinates (Angstroms)
 Number     Number       Type             X           Y           Z
 ---------------------------------------------------------------------
      1          8           0        0.000000    0.000000    1.712883
      2          8           0        0.000000    0.000000    3.065264
      3          8           0        0.000000    0.000000   -3.065264
      4          8           0        0.000000    0.000000   -1.712883
 ---------------------------------------------------------------------

 SCF Done:  E(ROHF) =  -298.905131014     A.U. after    9 cycles
 E2 =    -0.1251362048D+01 EUMP2 =    -0.30015649306121D+03
 CCSD(T)
 CCSD(T)= -0.30012200303D+03

 Unable to determine electronic state:  an orbital has unidentified symmetry.
 Alpha  occ. eigenvalues --  -20.19007 -20.19007 -20.17050 -20.17050  -1.01131
 Alpha  occ. eigenvalues --   -1.01085  -0.63151  -0.62851  -0.19589  -0.19511
 Alpha  occ. eigenvalues --   -0.17046  -0.16292  -0.13237  -0.12625   0.01959
 Alpha  occ. eigenvalues --    0.02152   0.20107
 Alpha virt. eigenvalues --    0.32402   0.72344   0.79207   1.08604   1.15601
 Alpha virt. eigenvalues --    1.16258   1.16778   1.17304   1.17312   1.18277
 Alpha virt. eigenvalues --    1.23873   1.25388   1.27593   1.29078   1.36952

 Mulliken charges and spin densities:
               1          2
     1  O   -0.412259   0.000000
     2  O   -0.587741   0.000000
     3  O   -0.587741   0.000000
     4  O   -0.412259   0.000000
 Sum of Mulliken charges =  -2.00000   0.00000

 Dipole moment (field-independent basis, Debye):
    X=             -0.0000    Y=              0.0000    Z=              0.0000  Tot=              0.0000
 Quadrupole moment (field-independent basis, Debye-Ang):
   XX=            -24.2830   YY=            -25.6768   ZZ=            -91.4561
   XY=              0.0000   XZ=              0.0000   YZ=              0.0000

 CCSD(T)/cc-pVTZ Guess=Read SCF=(VeryTight,CDIIS,VShift=10)\\O2_O2_130\
 7\CCSD=-299.9948307\CCSD(T)=-300.122003\RMSD=1.513e-09\PG=D*H [C*(O1O1
 Normal termination of Gaussian 16 at Sat Jan 14 19:59:26 2023.
