 Gaussian 16, Revision A.03,
 Gaussian 16:  ES64L-G16RevA.03 25-Dec-2016

 ---------------------------------------------------------------
 #p ROCCSD(T)/cc-pVTZ Guess=Read SCF=(VeryTight,CDIIS,VShift=10)
 ---------------------------------------------------------------

 --------
 O2_O2_89
 --------
 Symbolic Z-matrix:
 Charge = -2 Multiplicity = 1

                         Standard orientation:
 ---------------------------------------------------------------------
 Center     Atomic      Atomic             Coordinates (Angstroms)
 Number     Number       Type             X           Y           Z
 ---------------------------------------------------------------------
      1          8           0        0.000000    0.000000    1.422633
      2          8           0        0.000000    0.000000    2.775013
      3          8           0        0.000000    0.000000   -2.775013
      4          8           0        0.000000    0.000000   -1.422633
 ---------------------------------------------------------------------

 SCF Done:  E(ROHF) =  -298.905571842     A.U. after    9 cycles
 E2 =    -0.1199078780D+01 EUMP2 =    -0.30010465062297D+03
 CCSD(T)
 CCSD(T)= -0.30010049327D+03

 Unable to determine electronic state:  an orbital has unidentified symmetry.
 Alpha  occ. eigenvalues --  -20.18156 -20.18155 -20.15213 -20.15213  -0.99840
 Alpha  occ. eigenvalues --   -0.99673  -0.62045  -0.61078  -0.18350  -0.18052
 Alpha  occ. eigenvalues --   -0.16271  -0.14047  -0.12081  -0.11011   0.03154
 Alpha  occ. eigenvalues --    0.03774   0.20244
 Alpha virt. eigenvalues --    0.35325   0.74882   0.81980   1.14307   1.15797
 Alpha virt. eigenvalues --    1.16253   1.17516   1.18106   1.19077   1.20011
 Alpha virt. eigenvalues --    1.23512   1.24980   1.32614   1.34097   1.38129

 Mulliken charges and spin densities:
               1          2
     1  O   -0.382685   0.000000
     2  O   -0.617315   0.000000
     3  O   -0.617315   0.000000
     4  O   -0.382685   0.000000
 Sum of Mulliken charges =  -2.00000   0.00000

 Dipole moment (field-independent basis, Debye):
    X=             -0.0000    Y=             -0.0000    Z=              0.0000  Tot=              0.0000
 Quadrupole moment (field-independent basis, Debye-Ang):
   XX=            -24.3545   YY=            -25.6886   ZZ=            -79.7881
   XY=              0.0000   XZ=              0.0000   YZ=              0.0000

 CCSD(T)/cc-pVTZ Guess=Read SCF=(VeryTight,CDIIS,VShift=10)\\O2_O2_89\\
 172\CCSD=-299.9848208\CCSD(T)=-300.1004933\RMSD=2.711e-09\PG=D*H [C*(O
 Normal termination of Gaussian 16 at Sat Jan 14 19:08:35 2023.
