 Gaussian 16, Revision A.03,
 Gaussian 16:  ES64L-G16RevA.03 25-Dec-2016

 -------------------------------------
 #p CCSD(T)/cc-pVTZ Guess=Read SCF=XQC
 -------------------------------------

 ---------
 O2_O2_156
 ---------
 Symbolic Z-matrix:
 Charge = -2 Multiplicity = 1

                         Standard orientation:
 ---------------------------------------------------------------------
 Center     Atomic      Atomic             Coordinates (Angstroms)
 Number     Number       Type             X           Y           Z
 ---------------------------------------------------------------------
      1          8           0        0.000000    0.000000    1.896945
      2          8           0        0.000000    0.000000    3.249325
      3          8           0        0.000000    0.000000   -3.249325
      4          8           0        0.000000    0.000000   -1.896945
 ---------------------------------------------------------------------

 SCF Done:  E(RHF) =  -298.906628705     A.U. after    8 cycles
 E2 =    -0.1281724217D+01 EUMP2 =    -0.30018835292175D+03
 CCSD(T)
 CCSD(T)= -0.30013284446D+03

 Unable to determine electronic state:  an orbital has unidentified symmetry.
 Alpha  occ. eigenvalues --  -20.19557 -20.19557 -20.17975 -20.17975  -1.01860
 Alpha  occ. eigenvalues --   -1.01838  -0.63859  -0.63703  -0.20306  -0.20273
 Alpha  occ. eigenvalues --   -0.17660  -0.17290  -0.13908  -0.13452   0.01254
 Alpha  occ. eigenvalues --    0.01338   0.19897
 Alpha virt. eigenvalues --    0.31009   0.72195   0.77449   1.09276   1.15205
 Alpha virt. eigenvalues --    1.15896   1.16373   1.16435   1.16902   1.17350
 Alpha virt. eigenvalues --    1.23974   1.25479   1.25680   1.27164   1.30488

 Mulliken charges:
               1
     1  O   -0.424943
     2  O   -0.575057
     3  O   -0.575057
     4  O   -0.424943
 Sum of Mulliken charges =  -2.00000

 Dipole moment (field-independent basis, Debye):
    X=             -0.0000    Y=              0.0000    Z=              0.0000  Tot=              0.0000
 Quadrupole moment (field-independent basis, Debye-Ang):
   XX=            -24.2584   YY=            -25.6713   ZZ=            -99.8031
   XY=              0.0000   XZ=              0.0000   YZ=              0.0000

 14921\MP4DQ=-299.82045\MP4SDQ=-299.8518775\CCSD=-300.0008831\CCSD(T)=-
 Normal termination of Gaussian 16 at Wed Jan  4 20:40:05 2023.
