 Gaussian 16, Revision A.03,
 Gaussian 16:  ES64L-G16RevA.03 25-Dec-2016

 -------------------------------------
 #p CCSD(T)/cc-pVTZ Guess=Read SCF=XQC
 -------------------------------------

 ---------
 O2_O2_238
 ---------
 Symbolic Z-matrix:
 Charge = -2 Multiplicity = 1

                         Standard orientation:
 ---------------------------------------------------------------------
 Center     Atomic      Atomic             Coordinates (Angstroms)
 Number     Number       Type             X           Y           Z
 ---------------------------------------------------------------------
      1          8           0        0.000000    0.000000    2.477447
      2          8           0        0.000000    0.000000    3.829827
      3          8           0        0.000000    0.000000   -3.829827
      4          8           0        0.000000    0.000000   -2.477447
 ---------------------------------------------------------------------

 SCF Done:  E(RHF) =  -298.913776777     A.U. after    8 cycles
 E2 =    -0.1369285885D+01 EUMP2 =    -0.30028306266207D+03
 CCSD(T)
 CCSD(T)= -0.30015836348D+03

 Unable to determine electronic state:  an orbital has unidentified symmetry.
 Alpha  occ. eigenvalues --  -20.21141 -20.21141 -20.20167 -20.20167  -1.03725
 Alpha  occ. eigenvalues --   -1.03721  -0.65737  -0.65699  -0.22161  -0.22160
 Alpha  occ. eigenvalues --   -0.19471  -0.19444  -0.15663  -0.15438  -0.00610
 Alpha  occ. eigenvalues --   -0.00606   0.19139
 Alpha virt. eigenvalues --    0.27873   0.72648   0.73236   1.12135   1.12813
 Alpha virt. eigenvalues --    1.14321   1.14338   1.15313   1.15330   1.16754
 Alpha virt. eigenvalues --    1.17723   1.22831   1.22891   1.24314   1.24373

 Mulliken charges:
               1
     1  O   -0.450275
     2  O   -0.549725
     3  O   -0.549725
     4  O   -0.450275
 Sum of Mulliken charges =  -2.00000

 Dipole moment (field-independent basis, Debye):
    X=             -0.0000    Y=             -0.0000    Z=             -0.0000  Tot=              0.0000
 Quadrupole moment (field-independent basis, Debye-Ang):
   XX=            -24.2322   YY=            -25.6610   ZZ=           -130.7061
   XY=              0.0000   XZ=              0.0000   YZ=              0.0000

 Normal termination of Gaussian 16 at Wed Jan  4 21:27:45 2023.
