 Gaussian 16, Revision A.03,
 Gaussian 16:  ES64L-G16RevA.03 25-Dec-2016

 ---------------------------------------------------------------
 #p ROCCSD(T)/cc-pVTZ Guess=Read SCF=(VeryTight,CDIIS,VShift=10)
 ---------------------------------------------------------------

 ---------
 O2_O2_275
 ---------
 Symbolic Z-matrix:
 Charge = -2 Multiplicity = 1

                         Standard orientation:
 ---------------------------------------------------------------------
 Center     Atomic      Atomic             Coordinates (Angstroms)
 Number     Number       Type             X           Y           Z
 ---------------------------------------------------------------------
      1          8           0        0.000000    0.000000    2.739381
      2          8           0        0.000000    0.000000    4.091761
      3          8           0        0.000000    0.000000   -4.091761
      4          8           0        0.000000    0.000000   -2.739381
 ---------------------------------------------------------------------

 SCF Done:  E(ROHF) =  -298.916819202     A.U. after    8 cycles
 E2 =    -0.1406919564D+01 EUMP2 =    -0.30032373876564D+03
 CCSD(T)
 CCSD(T)= -0.30016698469D+03

 Unable to determine electronic state:  an orbital has unidentified symmetry.
 Alpha  occ. eigenvalues --  -20.21729 -20.21729 -20.20905 -20.20905  -1.04380
 Alpha  occ. eigenvalues --   -1.04377  -0.66401  -0.66374  -0.22815  -0.22815
 Alpha  occ. eigenvalues --   -0.20141  -0.20134  -0.16289  -0.16114  -0.01271
 Alpha  occ. eigenvalues --   -0.01270   0.18836
 Alpha virt. eigenvalues --    0.26841   0.72165   0.72294   1.11749   1.11904
 Alpha virt. eigenvalues --    1.13690   1.13693   1.14683   1.14687   1.16330
 Alpha virt. eigenvalues --    1.16505   1.22190   1.22199   1.23671   1.23680

 Mulliken charges and spin densities:
               1          2
     1  O   -0.457671  -0.000000
     2  O   -0.542329  -0.000000
     3  O   -0.542329  -0.000000
     4  O   -0.457671  -0.000000
 Sum of Mulliken charges =  -2.00000  -0.00000

 Dipole moment (field-independent basis, Debye):
    X=             -0.0000    Y=             -0.0000    Z=              0.0000  Tot=              0.0000
 Quadrupole moment (field-independent basis, Debye-Ang):
   XX=            -24.2291   YY=            -25.6585   ZZ=           -146.8724
   XY=              0.0000   XZ=              0.0000   YZ=              0.0000

 CCSD(T)/cc-pVTZ Guess=Read SCF=(VeryTight,CDIIS,VShift=10)\\O2_O2_275\
 3371\CCSD=-300.0233148\CCSD(T)=-300.1669847\RMSD=3.289e-09\PG=D*H [C*(
 Normal termination of Gaussian 16 at Sat Jan 14 23:14:02 2023.
