 Gaussian 16, Revision A.03,
 Gaussian 16:  ES64L-G16RevA.03 25-Dec-2016

 -------------------------------------
 #p CCSD(T)/cc-pVTZ Guess=Read SCF=XQC
 -------------------------------------

 --------
 O2_O2_84
 --------
 Symbolic Z-matrix:
 Charge = -2 Multiplicity = 1

                         Standard orientation:
 ---------------------------------------------------------------------
 Center     Atomic      Atomic             Coordinates (Angstroms)
 Number     Number       Type             X           Y           Z
 ---------------------------------------------------------------------
      1          8           0        0.000000    0.000000    1.387236
      2          8           0        0.000000    0.000000    2.739616
      3          8           0        0.000000    0.000000   -2.739616
      4          8           0        0.000000    0.000000   -1.387236
 ---------------------------------------------------------------------

 SCF Done:  E(RHF) =  -298.905961428     A.U. after    9 cycles
 E2 =    -0.1192309965D+01 EUMP2 =    -0.30009827139321D+03
 CCSD(T)
 CCSD(T)= -0.30009736906D+03

 Unable to determine electronic state:  an orbital has unidentified symmetry.
 Alpha  occ. eigenvalues --  -20.18055 -20.18053 -20.14945 -20.14945  -0.99673
 Alpha  occ. eigenvalues --   -0.99474  -0.61929  -0.60805  -0.18193  -0.17844
 Alpha  occ. eigenvalues --   -0.16216  -0.13683  -0.11935  -0.10780   0.03303
 Alpha  occ. eigenvalues --    0.04013   0.20229
 Alpha virt. eigenvalues --    0.35767   0.75309   0.82335   1.15497   1.15811
 Alpha virt. eigenvalues --    1.16217   1.17524   1.18597   1.19310   1.20238
 Alpha virt. eigenvalues --    1.23530   1.24985   1.33387   1.34869   1.38247

 Mulliken charges:
               1
     1  O   -0.377880
     2  O   -0.622120
     3  O   -0.622120
     4  O   -0.377880
 Sum of Mulliken charges =  -2.00000

 Dipole moment (field-independent basis, Debye):
    X=             -0.0000    Y=              0.0000    Z=             -0.0000  Tot=              0.0000
 Quadrupole moment (field-independent basis, Debye-Ang):
   XX=            -24.3663   YY=            -25.6903   ZZ=            -78.4965
   XY=              0.0000   XZ=              0.0000   YZ=              0.0000

 Normal termination of Gaussian 16 at Wed Jan  4 19:59:32 2023.
