 Gaussian 16, Revision A.03,
 Gaussian 16:  ES64L-G16RevA.03 25-Dec-2016

 -------------------------------------
 #p CCSD(T)/cc-pVTZ Guess=Read SCF=XQC
 -------------------------------------

 --------
 O2_O2_42
 --------
 Symbolic Z-matrix:
 Charge = -2 Multiplicity = 1

                         Standard orientation:
 ---------------------------------------------------------------------
 Center     Atomic      Atomic             Coordinates (Angstroms)
 Number     Number       Type             X           Y           Z
 ---------------------------------------------------------------------
      1          8           0        0.000000    0.000000    1.089906
      2          8           0        0.000000    0.000000    2.442286
      3          8           0        0.000000    0.000000   -2.442286
      4          8           0        0.000000    0.000000   -1.089906
 ---------------------------------------------------------------------

 SCF Done:  E(RHF) =  -298.909112174     A.U. after    9 cycles
 E2 =    -0.1133719601D+01 EUMP2 =    -0.30004283177537D+03
 CCSD(T)
 CCSD(T)= -0.30006191945D+03

 Unable to determine electronic state:  an orbital has unidentified symmetry.
 Alpha  occ. eigenvalues --  -20.17147 -20.17145 -20.12076 -20.12076  -0.98313
 Alpha  occ. eigenvalues --   -0.97393  -0.61738  -0.57531  -0.16994  -0.16604
 Alpha  occ. eigenvalues --   -0.15635  -0.10801  -0.08968  -0.08360   0.04515
 Alpha  occ. eigenvalues --    0.06635   0.19531
 Alpha virt. eigenvalues --    0.40652   0.78638   0.85878   1.16469   1.16952
 Alpha virt. eigenvalues --    1.17898   1.18651   1.21428   1.22283   1.24921
 Alpha virt. eigenvalues --    1.26333   1.36261   1.39026   1.40131   1.40714

 Mulliken charges:
               1
     1  O   -0.319103
     2  O   -0.680897
     3  O   -0.680897
     4  O   -0.319103
 Sum of Mulliken charges =  -2.00000

 Dipole moment (field-independent basis, Debye):
    X=             -0.0000    Y=              0.0000    Z=              0.0000  Tot=              0.0000
 Quadrupole moment (field-independent basis, Debye-Ang):
   XX=            -24.4763   YY=            -25.6982   ZZ=            -69.0233
   XY=              0.0000   XZ=              0.0000   YZ=              0.0000

 Normal termination of Gaussian 16 at Wed Jan  4 19:35:07 2023.
