 Gaussian 16, Revision A.03,
 Gaussian 16:  ES64L-G16RevA.03 25-Dec-2016

 ---------------------------------------------------------------
 #p ROCCSD(T)/cc-pVTZ Guess=Read SCF=(VeryTight,CDIIS,VShift=10)
 ---------------------------------------------------------------

 ---------
 O2_O2_143
 ---------
 Symbolic Z-matrix:
 Charge = -2 Multiplicity = 1

                         Standard orientation:
 ---------------------------------------------------------------------
 Center     Atomic      Atomic             Coordinates (Angstroms)
 Number     Number       Type             X           Y           Z
 ---------------------------------------------------------------------
      1          8           0        0.000000    0.000000    1.804914
      2          8           0        0.000000    0.000000    3.157294
      3          8           0        0.000000    0.000000   -3.157294
      4          8           0        0.000000    0.000000   -1.804914
 ---------------------------------------------------------------------

 SCF Done:  E(ROHF) =  -298.905769909     A.U. after    8 cycles
 E2 =    -0.1266776586D+01 EUMP2 =    -0.30017254649470D+03
 CCSD(T)
 CCSD(T)= -0.30012764494D+03

 Unable to determine electronic state:  an orbital has unidentified symmetry.
 Alpha  occ. eigenvalues --  -20.19283 -20.19282 -20.17531 -20.17531  -1.01504
 Alpha  occ. eigenvalues --   -1.01473  -0.63510  -0.63296  -0.19955  -0.19904
 Alpha  occ. eigenvalues --   -0.17350  -0.16819  -0.13580  -0.13054   0.01600
 Alpha  occ. eigenvalues --    0.01729   0.20008
 Alpha virt. eigenvalues --    0.31672   0.72145   0.78327   1.08663   1.15432
 Alpha virt. eigenvalues --    1.16101   1.16567   1.16822   1.17122   1.17793
 Alpha virt. eigenvalues --    1.23963   1.25474   1.26531   1.28016   1.34937

 Mulliken charges and spin densities:
               1          2
     1  O   -0.419024  -0.000000
     2  O   -0.580976  -0.000000
     3  O   -0.580976  -0.000000
     4  O   -0.419024  -0.000000
 Sum of Mulliken charges =  -2.00000  -0.00000

 Dipole moment (field-independent basis, Debye):
    X=             -0.0000    Y=             -0.0000    Z=             -0.0000  Tot=              0.0000
 Quadrupole moment (field-independent basis, Debye-Ang):
   XX=            -24.2690   YY=            -25.6739   ZZ=            -95.5395
   XY=              0.0000   XZ=              0.0000   YZ=              0.0000

 CCSD(T)/cc-pVTZ Guess=Read SCF=(VeryTight,CDIIS,VShift=10)\\O2_O2_143\
 5815\CCSD=-299.9978959\CCSD(T)=-300.1276449\RMSD=9.027e-09\PG=D*H [C*(
 Normal termination of Gaussian 16 at Sat Jan 14 20:16:26 2023.
