 Gaussian 16, Revision A.03,
 Gaussian 16:  ES64L-G16RevA.03 25-Dec-2016

 -------------------------------------
 #p CCSD(T)/cc-pVTZ Guess=Read SCF=XQC
 -------------------------------------

 --------
 O2_O2_12
 --------
 Symbolic Z-matrix:
 Charge = -2 Multiplicity = 1

                         Standard orientation:
 ---------------------------------------------------------------------
 Center     Atomic      Atomic             Coordinates (Angstroms)
 Number     Number       Type             X           Y           Z
 ---------------------------------------------------------------------
      1          8           0        0.000000    0.000000    0.877527
      2          8           0        0.000000    0.000000    2.229907
      3          8           0        0.000000    0.000000   -2.229907
      4          8           0        0.000000    0.000000   -0.877527
 ---------------------------------------------------------------------

 SCF Done:  E(RHF) =  -298.883579159     A.U. after    8 cycles
 E2 =    -0.1097696937D+01 EUMP2 =    -0.29998127609628D+03
 CCSD(T)
 CCSD(T)= -0.30000300147D+03

 Unable to determine electronic state:  an orbital has unidentified symmetry.
 Alpha  occ. eigenvalues --  -20.16292 -20.16286 -20.08799 -20.08799  -0.98220
 Alpha  occ. eigenvalues --   -0.95066  -0.64361  -0.53180  -0.18484  -0.17061
 Alpha  occ. eigenvalues --   -0.13153  -0.10701  -0.05786  -0.01483   0.05198
 Alpha  occ. eigenvalues --    0.09694   0.17814
 Alpha virt. eigenvalues --    0.46101   0.80401   0.90009   1.17885   1.17889
 Alpha virt. eigenvalues --    1.19216   1.20940   1.23359   1.24125   1.27852
 Alpha virt. eigenvalues --    1.29423   1.39028   1.39347   1.44091   1.45637

 Mulliken charges:
               1
     1  O   -0.244360
     2  O   -0.755640
     3  O   -0.755640
     4  O   -0.244360
 Sum of Mulliken charges =  -2.00000

 Dipole moment (field-independent basis, Debye):
    X=             -0.0000    Y=              0.0000    Z=             -0.0000  Tot=              0.0000
 Quadrupole moment (field-independent basis, Debye-Ang):
   XX=            -24.4731   YY=            -25.6358   ZZ=            -64.4616
   XY=              0.0000   XZ=              0.0000   YZ=              0.0000

 Normal termination of Gaussian 16 at Wed Jan  4 19:19:08 2023.
