 Gaussian 16, Revision A.03,
 Gaussian 16:  ES64L-G16RevA.03 25-Dec-2016

 ---------------------------------------------------------------
 #p ROCCSD(T)/cc-pVTZ Guess=Read SCF=(VeryTight,CDIIS,VShift=10)
 ---------------------------------------------------------------

 ---------
 O2_O2_120
 ---------
 Symbolic Z-matrix:
 Charge = -2 Multiplicity = 1

                         Standard orientation:
 ---------------------------------------------------------------------
 Center     Atomic      Atomic             Coordinates (Angstroms)
 Number     Number       Type             X           Y           Z
 ---------------------------------------------------------------------
      1          8           0        0.000000    0.000000    1.642091
      2          8           0        0.000000    0.000000    2.994471
      3          8           0        0.000000    0.000000   -2.994471
      4          8           0        0.000000    0.000000   -1.642091
 ---------------------------------------------------------------------

 SCF Done:  E(ROHF) =  -298.904843058     A.U. after    9 cycles
 E2 =    -0.1239144145D+01 EUMP2 =    -0.30014398720304D+03
 CCSD(T)
 CCSD(T)= -0.30011732217D+03

 Unable to determine electronic state:  an orbital has unidentified symmetry.
 Alpha  occ. eigenvalues --  -20.18796 -20.18795 -20.16651 -20.16651  -1.00831
 Alpha  occ. eigenvalues --   -1.00770  -0.62872  -0.62479  -0.19298  -0.19189
 Alpha  occ. eigenvalues --   -0.16822  -0.15838  -0.12964  -0.12272   0.02243
 Alpha  occ. eigenvalues --    0.02502   0.20170
 Alpha virt. eigenvalues --    0.33019   0.72713   0.79880   1.09096   1.15691
 Alpha virt. eigenvalues --    1.16331   1.16988   1.17408   1.17715   1.18674
 Alpha virt. eigenvalues --    1.23763   1.25278   1.28577   1.30061   1.37317

 Mulliken charges and spin densities:
               1          2
     1  O   -0.406357   0.000000
     2  O   -0.593643   0.000000
     3  O   -0.593643   0.000000
     4  O   -0.406357   0.000000
 Sum of Mulliken charges =  -2.00000   0.00000

 Dipole moment (field-independent basis, Debye):
    X=             -0.0000    Y=              0.0000    Z=             -0.0000  Tot=              0.0000
 Quadrupole moment (field-independent basis, Debye-Ang):
   XX=            -24.2963   YY=            -25.6793   ZZ=            -88.4390
   XY=              0.0000   XZ=              0.0000   YZ=              0.0000

 CCSD(T)/cc-pVTZ Guess=Read SCF=(VeryTight,CDIIS,VShift=10)\\O2_O2_120\
 0429\CCSD=-299.9924307\CCSD(T)=-300.1173222\RMSD=1.730e-09\PG=D*H [C*(
 Normal termination of Gaussian 16 at Sat Jan 14 19:47:02 2023.
