 Gaussian 16, Revision A.03,
 Gaussian 16:  ES64L-G16RevA.03 25-Dec-2016

 ---------------------------------------------------------------
 #p ROCCSD(T)/cc-pVTZ Guess=Read SCF=(VeryTight,CDIIS,VShift=10)
 ---------------------------------------------------------------

 ---------
 O2_O2_149
 ---------
 Symbolic Z-matrix:
 Charge = -2 Multiplicity = 1

                         Standard orientation:
 ---------------------------------------------------------------------
 Center     Atomic      Atomic             Coordinates (Angstroms)
 Number     Number       Type             X           Y           Z
 ---------------------------------------------------------------------
      1          8           0        0.000000    0.000000    1.847390
      2          8           0        0.000000    0.000000    3.199770
      3          8           0        0.000000    0.000000   -3.199770
      4          8           0        0.000000    0.000000   -1.847390
 ---------------------------------------------------------------------

 SCF Done:  E(ROHF) =  -298.906143533     A.U. after    8 cycles
 E2 =    -0.1273729135D+01 EUMP2 =    -0.30017987266756D+03
 CCSD(T)
 CCSD(T)= -0.30013009619D+03

 Unable to determine electronic state:  an orbital has unidentified symmetry.
 Alpha  occ. eigenvalues --  -20.19410 -20.19409 -20.17740 -20.17740  -1.01670
 Alpha  occ. eigenvalues --   -1.01644  -0.63672  -0.63488  -0.20119  -0.20077
 Alpha  occ. eigenvalues --   -0.17492  -0.17043  -0.13733  -0.13241   0.01439
 Alpha  occ. eigenvalues --    0.01545   0.19958
 Alpha virt. eigenvalues --    0.31358   0.72144   0.77920   1.08895   1.15334
 Alpha virt. eigenvalues --    1.16011   1.16495   1.16609   1.17024   1.17583
 Alpha virt. eigenvalues --    1.23978   1.25487   1.26114   1.27599   1.32859

 Mulliken charges and spin densities:
               1          2
     1  O   -0.421851   0.000000
     2  O   -0.578149   0.000000
     3  O   -0.578149   0.000000
     4  O   -0.421851   0.000000
 Sum of Mulliken charges =  -2.00000   0.00000

 Dipole moment (field-independent basis, Debye):
    X=             -0.0000    Y=              0.0000    Z=              0.0000  Tot=              0.0000
 Quadrupole moment (field-independent basis, Debye-Ang):
   XX=            -24.2637   YY=            -25.6727   ZZ=            -97.4851
   XY=              0.0000   XZ=              0.0000   YZ=              0.0000

 CCSD(T)/cc-pVTZ Guess=Read SCF=(VeryTight,CDIIS,VShift=10)\\O2_O2_149\
 55\CCSD=-299.9992852\CCSD(T)=-300.1300962\RMSD=8.095e-09\PG=D*H [C*(O1
 Normal termination of Gaussian 16 at Sat Jan 14 20:24:10 2023.
