 Gaussian 16, Revision A.03,
 Gaussian 16:  ES64L-G16RevA.03 25-Dec-2016

 -------------------------------------
 #p CCSD(T)/cc-pVTZ Guess=Read SCF=XQC
 -------------------------------------

 ---------
 O2_O2_144
 ---------
 Symbolic Z-matrix:
 Charge = -2 Multiplicity = 1

                         Standard orientation:
 ---------------------------------------------------------------------
 Center     Atomic      Atomic             Coordinates (Angstroms)
 Number     Number       Type             X           Y           Z
 ---------------------------------------------------------------------
      1          8           0        0.000000    0.000000    1.811994
      2          8           0        0.000000    0.000000    3.164374
      3          8           0        0.000000    0.000000   -3.164374
      4          8           0        0.000000    0.000000   -1.811994
 ---------------------------------------------------------------------

 SCF Done:  E(RHF) =  -298.905829152     A.U. after    8 cycles
 E2 =    -0.1267942092D+01 EUMP2 =    -0.30017377124340D+03
 CCSD(T)
 CCSD(T)= -0.30012805974D+03

 Unable to determine electronic state:  an orbital has unidentified symmetry.
 Alpha  occ. eigenvalues --  -20.19304 -20.19303 -20.17566 -20.17566  -1.01532
 Alpha  occ. eigenvalues --   -1.01502  -0.63537  -0.63328  -0.19983  -0.19933
 Alpha  occ. eigenvalues --   -0.17373  -0.16858  -0.13605  -0.13086   0.01573
 Alpha  occ. eigenvalues --    0.01698   0.20000
 Alpha virt. eigenvalues --    0.31618   0.72141   0.78259   1.08694   1.15416
 Alpha virt. eigenvalues --    1.16087   1.16554   1.16786   1.17107   1.17757
 Alpha virt. eigenvalues --    1.23967   1.25477   1.26458   1.27943   1.34604

 Mulliken charges:
               1
     1  O   -0.419507
     2  O   -0.580493
     3  O   -0.580493
     4  O   -0.419507
 Sum of Mulliken charges =  -2.00000

 Dipole moment (field-independent basis, Debye):
    X=             -0.0000    Y=             -0.0000    Z=             -0.0000  Tot=              0.0000
 Quadrupole moment (field-independent basis, Debye-Ang):
   XX=            -24.2681   YY=            -25.6737   ZZ=            -95.8611
   XY=              0.0000   XZ=              0.0000   YZ=              0.0000

 Normal termination of Gaussian 16 at Wed Jan  4 20:33:16 2023.
