 Gaussian 16, Revision A.03,
 Gaussian 16:  ES64L-G16RevA.03 25-Dec-2016

 ---------------------------------------------------------------
 #p ROCCSD(T)/cc-pVTZ Guess=Read SCF=(VeryTight,CDIIS,VShift=10)
 ---------------------------------------------------------------

 ---------
 O2_O2_113
 ---------
 Symbolic Z-matrix:
 Charge = -2 Multiplicity = 1

                         Standard orientation:
 ---------------------------------------------------------------------
 Center     Atomic      Atomic             Coordinates (Angstroms)
 Number     Number       Type             X           Y           Z
 ---------------------------------------------------------------------
      1          8           0        0.000000    0.000000    1.592536
      2          8           0        0.000000    0.000000    2.944916
      3          8           0        0.000000    0.000000   -2.944916
      4          8           0        0.000000    0.000000   -1.592536
 ---------------------------------------------------------------------

 SCF Done:  E(ROHF) =  -298.904773250     A.U. after    9 cycles
 E2 =    -0.1230390726D+01 EUMP2 =    -0.30013516397578D+03
 CCSD(T)
 CCSD(T)= -0.30011384979D+03

 Unable to determine electronic state:  an orbital has unidentified symmetry.
 Alpha  occ. eigenvalues --  -20.18649 -20.18649 -20.16355 -20.16355  -1.00616
 Alpha  occ. eigenvalues --   -1.00539  -0.62677  -0.62198  -0.19089  -0.18952
 Alpha  occ. eigenvalues --   -0.16675  -0.15491  -0.12769  -0.12011   0.02445
 Alpha  occ. eigenvalues --    0.02763   0.20205
 Alpha virt. eigenvalues --    0.33484   0.73085   0.80349   1.09772   1.15733
 Alpha virt. eigenvalues --    1.16353   1.17161   1.17458   1.18009   1.18963
 Alpha virt. eigenvalues --    1.23680   1.25190   1.29359   1.30843   1.37519

 Mulliken charges and spin densities:
               1          2
     1  O   -0.401794   0.000000
     2  O   -0.598206   0.000000
     3  O   -0.598206   0.000000
     4  O   -0.401794  -0.000000
 Sum of Mulliken charges =  -2.00000   0.00000

 Dipole moment (field-independent basis, Debye):
    X=             -0.0000    Y=              0.0000    Z=             -0.0000  Tot=              0.0000
 Quadrupole moment (field-independent basis, Debye-Ang):
   XX=            -24.3072   YY=            -25.6812   ZZ=            -86.3918
   XY=              0.0000   XZ=              0.0000   YZ=              0.0000

 CCSD(T)/cc-pVTZ Guess=Read SCF=(VeryTight,CDIIS,VShift=10)\\O2_O2_113\
 8\CCSD=-299.990734\CCSD(T)=-300.1138498\RMSD=1.903e-09\PG=D*H [C*(O1O1
 Normal termination of Gaussian 16 at Sat Jan 14 19:38:43 2023.
