 Gaussian 16, Revision A.03,
 Gaussian 16:  ES64L-G16RevA.03 25-Dec-2016

 -------------------------------------
 #p CCSD(T)/cc-pVTZ Guess=Read SCF=XQC
 -------------------------------------

 --------
 O2_O2_46
 --------
 Symbolic Z-matrix:
 Charge = -2 Multiplicity = 1

                         Standard orientation:
 ---------------------------------------------------------------------
 Center     Atomic      Atomic             Coordinates (Angstroms)
 Number     Number       Type             X           Y           Z
 ---------------------------------------------------------------------
      1          8           0        0.000000    0.000000    1.118223
      2          8           0        0.000000    0.000000    2.470603
      3          8           0        0.000000    0.000000   -2.470603
      4          8           0        0.000000    0.000000   -1.118223
 ---------------------------------------------------------------------

 SCF Done:  E(RHF) =  -298.909328240     A.U. after    9 cycles
 E2 =    -0.1139257768D+01 EUMP2 =    -0.30004858600808D+03
 CCSD(T)
 CCSD(T)= -0.30006648415D+03

 Unable to determine electronic state:  an orbital has unidentified symmetry.
 Alpha  occ. eigenvalues --  -20.17245 -20.17243 -20.12412 -20.12412  -0.98425
 Alpha  occ. eigenvalues --   -0.97635  -0.61647  -0.57948  -0.17083  -0.16474
 Alpha  occ. eigenvalues --   -0.15894  -0.10890  -0.09606  -0.08637   0.04408
 Alpha  occ. eigenvalues --    0.06321   0.19661
 Alpha virt. eigenvalues --    0.40072   0.78356   0.85472   1.16357   1.16742
 Alpha virt. eigenvalues --    1.17869   1.18411   1.21207   1.22072   1.24674
 Alpha virt. eigenvalues --    1.26077   1.34291   1.38976   1.39523   1.40369

 Mulliken charges:
               1
     1  O   -0.326579
     2  O   -0.673421
     3  O   -0.673421
     4  O   -0.326579
 Sum of Mulliken charges =  -2.00000

 Dipole moment (field-independent basis, Debye):
    X=             -0.0000    Y=              0.0000    Z=             -0.0000  Tot=              0.0000
 Quadrupole moment (field-independent basis, Debye-Ang):
   XX=            -24.4672   YY=            -25.6993   ZZ=            -69.7996
   XY=              0.0000   XZ=              0.0000   YZ=              0.0000

 Normal termination of Gaussian 16 at Wed Jan  4 19:37:31 2023.
