 Gaussian 16, Revision A.03,
 Gaussian 16:  ES64L-G16RevA.03 25-Dec-2016

 ---------------------------------------------------------------
 #p ROCCSD(T)/cc-pVTZ Guess=Read SCF=(VeryTight,CDIIS,VShift=10)
 ---------------------------------------------------------------

 --------
 O2_O2_81
 --------
 Symbolic Z-matrix:
 Charge = -2 Multiplicity = 1

                         Standard orientation:
 ---------------------------------------------------------------------
 Center     Atomic      Atomic             Coordinates (Angstroms)
 Number     Number       Type             X           Y           Z
 ---------------------------------------------------------------------
      1          8           0        0.000000    0.000000    1.365998
      2          8           0        0.000000    0.000000    2.718378
      3          8           0        0.000000    0.000000   -2.718378
      4          8           0        0.000000    0.000000   -1.365998
 ---------------------------------------------------------------------

 SCF Done:  E(ROHF) =  -298.906230435     A.U. after    9 cycles
 E2 =    -0.1188211742D+01 EUMP2 =    -0.30009444217681D+03
 CCSD(T)
 CCSD(T)= -0.30009542531D+03

 Unable to determine electronic state:  an orbital has unidentified symmetry.
 Alpha  occ. eigenvalues --  -20.17994 -20.17993 -20.14779 -20.14779  -0.99572
 Alpha  occ. eigenvalues --   -0.99352  -0.61864  -0.60632  -0.18099  -0.17715
 Alpha  occ. eigenvalues --   -0.16190  -0.13450  -0.11847  -0.10636   0.03393
 Alpha  occ. eigenvalues --    0.04162   0.20216
 Alpha virt. eigenvalues --    0.36043   0.75568   0.82552   1.15823   1.16116
 Alpha virt. eigenvalues --    1.16198   1.17532   1.19078   1.19451   1.20375
 Alpha virt. eigenvalues --    1.23553   1.25000   1.33862   1.35344   1.38315

 Mulliken charges and spin densities:
               1          2
     1  O   -0.374834  -0.000000
     2  O   -0.625166  -0.000000
     3  O   -0.625166  -0.000000
     4  O   -0.374834  -0.000000
 Sum of Mulliken charges =  -2.00000  -0.00000

 Dipole moment (field-independent basis, Debye):
    X=             -0.0000    Y=              0.0000    Z=              0.0000  Tot=              0.0000
 Quadrupole moment (field-independent basis, Debye-Ang):
   XX=            -24.3737   YY=            -25.6913   ZZ=            -77.7363
   XY=              0.0000   XZ=              0.0000   YZ=              0.0000

 CCSD(T)/cc-pVTZ Guess=Read SCF=(VeryTight,CDIIS,VShift=10)\\O2_O2_81\\
 425\CCSD=-299.9827793\CCSD(T)=-300.0954253\RMSD=3.087e-09\PG=D*H [C*(O
 Normal termination of Gaussian 16 at Sat Jan 14 18:57:32 2023.
