 Gaussian 16, Revision A.03,
 Gaussian 16:  ES64L-G16RevA.03 25-Dec-2016

 ---------------------------------------------------------------
 #p ROCCSD(T)/cc-pVTZ Guess=Read SCF=(VeryTight,CDIIS,VShift=10)
 ---------------------------------------------------------------

 --------
 O2_O2_87
 --------
 Symbolic Z-matrix:
 Charge = -2 Multiplicity = 1

                         Standard orientation:
 ---------------------------------------------------------------------
 Center     Atomic      Atomic             Coordinates (Angstroms)
 Number     Number       Type             X           Y           Z
 ---------------------------------------------------------------------
      1          8           0        0.000000    0.000000    1.408474
      2          8           0        0.000000    0.000000    2.760854
      3          8           0        0.000000    0.000000   -2.760854
      4          8           0        0.000000    0.000000   -1.408474
 ---------------------------------------------------------------------

 SCF Done:  E(ROHF) =  -298.905718544     A.U. after    9 cycles
 E2 =    -0.1196380776D+01 EUMP2 =    -0.30010209932034D+03
 CCSD(T)
 CCSD(T)= -0.30009926054D+03

 Unable to determine electronic state:  an orbital has unidentified symmetry.
 Alpha  occ. eigenvalues --  -20.18115 -20.18114 -20.15107 -20.15107  -0.99774
 Alpha  occ. eigenvalues --   -0.99594  -0.61997  -0.60971  -0.18287  -0.17970
 Alpha  occ. eigenvalues --   -0.16247  -0.13905  -0.12022  -0.10920   0.03213
 Alpha  occ. eigenvalues --    0.03868   0.20239
 Alpha virt. eigenvalues --    0.35499   0.75052   0.82121   1.14794   1.15802
 Alpha virt. eigenvalues --    1.16238   1.17518   1.18269   1.19170   1.20101
 Alpha virt. eigenvalues --    1.23516   1.24979   1.32920   1.34402   1.38177

 Mulliken charges and spin densities:
               1          2
     1  O   -0.380802   0.000000
     2  O   -0.619198   0.000000
     3  O   -0.619198   0.000000
     4  O   -0.380802   0.000000
 Sum of Mulliken charges =  -2.00000   0.00000

 Dipole moment (field-independent basis, Debye):
    X=             -0.0000    Y=              0.0000    Z=             -0.0000  Tot=              0.0000
 Quadrupole moment (field-independent basis, Debye-Ang):
   XX=            -24.3592   YY=            -25.6893   ZZ=            -79.2679
   XY=              0.0000   XZ=              0.0000   YZ=              0.0000

 CCSD(T)/cc-pVTZ Guess=Read SCF=(VeryTight,CDIIS,VShift=10)\\O2_O2_87\\
 713\CCSD=-299.9843166\CCSD(T)=-300.0992605\RMSD=2.799e-09\PG=D*H [C*(O
 Normal termination of Gaussian 16 at Sat Jan 14 19:06:02 2023.
