 Gaussian 16, Revision A.03,
 Gaussian 16:  ES64L-G16RevA.03 25-Dec-2016

 ---------------------------------------------------------------
 #p ROCCSD(T)/cc-pVTZ Guess=Read SCF=(VeryTight,CDIIS,VShift=10)
 ---------------------------------------------------------------

 ---------
 O2_O2_220
 ---------
 Symbolic Z-matrix:
 Charge = -2 Multiplicity = 1

                         Standard orientation:
 ---------------------------------------------------------------------
 Center     Atomic      Atomic             Coordinates (Angstroms)
 Number     Number       Type             X           Y           Z
 ---------------------------------------------------------------------
      1          8           0        0.000000    0.000000    2.350020
      2          8           0        0.000000    0.000000    3.702400
      3          8           0        0.000000    0.000000   -3.702400
      4          8           0        0.000000    0.000000   -2.350020
 ---------------------------------------------------------------------

 SCF Done:  E(ROHF) =  -298.912181540     A.U. after    8 cycles
 E2 =    -0.1350717237D+01 EUMP2 =    -0.30026289877639D+03
 CCSD(T)
 CCSD(T)= -0.30015361929D+03

 Unable to determine electronic state:  an orbital has unidentified symmetry.
 Alpha  occ. eigenvalues --  -20.20825 -20.20825 -20.19760 -20.19760  -1.03368
 Alpha  occ. eigenvalues --   -1.03363  -0.65375  -0.65328  -0.21805  -0.21802
 Alpha  occ. eigenvalues --   -0.19109  -0.19059  -0.15323  -0.15066  -0.00249
 Alpha  occ. eigenvalues --   -0.00242   0.19299
 Alpha virt. eigenvalues --    0.28445   0.72773   0.73879   1.12135   1.13379
 Alpha virt. eigenvalues --    1.14657   1.14697   1.15649   1.15688   1.16774
 Alpha virt. eigenvalues --    1.18797   1.23157   1.23296   1.24642   1.24778

 Mulliken charges and spin densities:
               1          2
     1  O   -0.445965   0.000000
     2  O   -0.554035   0.000000
     3  O   -0.554035   0.000000
     4  O   -0.445965   0.000000
 Sum of Mulliken charges =  -2.00000   0.00000

 Dipole moment (field-independent basis, Debye):
    X=             -0.0000    Y=              0.0000    Z=             -0.0000  Tot=              0.0000
 Quadrupole moment (field-independent basis, Debye-Ang):
   XX=            -24.2346   YY=            -25.6625   ZZ=           -123.3390
   XY=              0.0000   XZ=              0.0000   YZ=              0.0000

 CCSD(T)/cc-pVTZ Guess=Read SCF=(VeryTight,CDIIS,VShift=10)\\O2_O2_220\
 6889\CCSD=-300.0141285\CCSD(T)=-300.1536193\RMSD=4.110e-09\PG=D*H [C*(
 Normal termination of Gaussian 16 at Sat Jan 14 21:58:57 2023.
