 Gaussian 16, Revision A.03,
 Gaussian 16:  ES64L-G16RevA.03 25-Dec-2016

 -------------------------------------
 #p CCSD(T)/cc-pVTZ Guess=Read SCF=XQC
 -------------------------------------

 ---------
 O2_O2_236
 ---------
 Symbolic Z-matrix:
 Charge = -2 Multiplicity = 1

                         Standard orientation:
 ---------------------------------------------------------------------
 Center     Atomic      Atomic             Coordinates (Angstroms)
 Number     Number       Type             X           Y           Z
 ---------------------------------------------------------------------
      1          8           0        0.000000    0.000000    2.463288
      2          8           0        0.000000    0.000000    3.815668
      3          8           0        0.000000    0.000000   -3.815668
      4          8           0        0.000000    0.000000   -2.463288
 ---------------------------------------------------------------------

 SCF Done:  E(RHF) =  -298.913602662     A.U. after    8 cycles
 E2 =    -0.1367233288D+01 EUMP2 =    -0.30028083595036D+03
 CCSD(T)
 CCSD(T)= -0.30015785583D+03

 Unable to determine electronic state:  an orbital has unidentified symmetry.
 Alpha  occ. eigenvalues --  -20.21107 -20.21107 -20.20124 -20.20123  -1.03687
 Alpha  occ. eigenvalues --   -1.03683  -0.65698  -0.65659  -0.22123  -0.22122
 Alpha  occ. eigenvalues --   -0.19431  -0.19403  -0.15626  -0.15398  -0.00571
 Alpha  occ. eigenvalues --   -0.00567   0.19156
 Alpha virt. eigenvalues --    0.27934   0.72667   0.73300   1.12145   1.12872
 Alpha virt. eigenvalues --    1.14357   1.14377   1.15349   1.15368   1.16764
 Alpha virt. eigenvalues --    1.17820   1.22867   1.22933   1.24350   1.24415

 Mulliken charges:
               1
     1  O   -0.449822
     2  O   -0.550178
     3  O   -0.550178
     4  O   -0.449822
 Sum of Mulliken charges =  -2.00000

 Dipole moment (field-independent basis, Debye):
    X=             -0.0000    Y=             -0.0000    Z=             -0.0000  Tot=              0.0000
 Quadrupole moment (field-independent basis, Debye-Ang):
   XX=            -24.2324   YY=            -25.6611   ZZ=           -129.8714
   XY=              0.0000   XZ=              0.0000   YZ=              0.0000

 Normal termination of Gaussian 16 at Wed Jan  4 21:26:33 2023.
