 Gaussian 16, Revision A.03,
 Gaussian 16:  ES64L-G16RevA.03 25-Dec-2016

 -------------------------------------
 #p CCSD(T)/cc-pVTZ Guess=Read SCF=XQC
 -------------------------------------

 ---------
 O2_O2_110
 ---------
 Symbolic Z-matrix:
 Charge = -2 Multiplicity = 1

                         Standard orientation:
 ---------------------------------------------------------------------
 Center     Atomic      Atomic             Coordinates (Angstroms)
 Number     Number       Type             X           Y           Z
 ---------------------------------------------------------------------
      1          8           0        0.000000    0.000000    1.571298
      2          8           0        0.000000    0.000000    2.923678
      3          8           0        0.000000    0.000000   -2.923678
      4          8           0        0.000000    0.000000   -1.571298
 ---------------------------------------------------------------------

 SCF Done:  E(RHF) =  -298.904781142     A.U. after    9 cycles
 E2 =    -0.1226587008D+01 EUMP2 =    -0.30013136815000D+03
 CCSD(T)
 CCSD(T)= -0.30011230852D+03

 Unable to determine electronic state:  an orbital has unidentified symmetry.
 Alpha  occ. eigenvalues --  -20.18587 -20.18586 -20.16224 -20.16224  -1.00522
 Alpha  occ. eigenvalues --   -1.00438  -0.62594  -0.62073  -0.18998  -0.18847
 Alpha  occ. eigenvalues --   -0.16615  -0.15333  -0.12685  -0.11895   0.02532
 Alpha  occ. eigenvalues --    0.02879   0.20218
 Alpha virt. eigenvalues --    0.33692   0.73270   0.80550   1.10152   1.15747
 Alpha virt. eigenvalues --    1.16354   1.17243   1.17474   1.18138   1.19090
 Alpha virt. eigenvalues --    1.23645   1.25152   1.29719   1.31202   1.37600

 Mulliken charges:
               1
     1  O   -0.399716
     2  O   -0.600284
     3  O   -0.600284
     4  O   -0.399716
 Sum of Mulliken charges =  -2.00000

 Dipole moment (field-independent basis, Debye):
    X=             -0.0000    Y=              0.0000    Z=              0.0000  Tot=              0.0000
 Quadrupole moment (field-independent basis, Debye-Ang):
   XX=            -24.3122   YY=            -25.6820   ZZ=            -85.5309
   XY=              0.0000   XZ=              0.0000   YZ=              0.0000

 Normal termination of Gaussian 16 at Wed Jan  4 20:14:05 2023.
