 Gaussian 16, Revision A.03,
 Gaussian 16:  ES64L-G16RevA.03 25-Dec-2016

 ---------------------------------------------------------------
 #p ROCCSD(T)/cc-pVTZ Guess=Read SCF=(VeryTight,CDIIS,VShift=10)
 ---------------------------------------------------------------

 ---------
 O2_O2_202
 ---------
 Symbolic Z-matrix:
 Charge = -2 Multiplicity = 1

                         Standard orientation:
 ---------------------------------------------------------------------
 Center     Atomic      Atomic             Coordinates (Angstroms)
 Number     Number       Type             X           Y           Z
 ---------------------------------------------------------------------
      1          8           0        0.000000    0.000000    2.222593
      2          8           0        0.000000    0.000000    3.574973
      3          8           0        0.000000    0.000000   -3.574973
      4          8           0        0.000000    0.000000   -2.222593
 ---------------------------------------------------------------------

 SCF Done:  E(ROHF) =  -298.910545211     A.U. after    8 cycles
 E2 =    -0.1331878501D+01 EUMP2 =    -0.30024242371239D+03
 CCSD(T)
 CCSD(T)= -0.30014845105D+03

 Unable to determine electronic state:  an orbital has unidentified symmetry.
 Alpha  occ. eigenvalues --  -20.20489 -20.20488 -20.19315 -20.19315  -1.02983
 Alpha  occ. eigenvalues --   -1.02975  -0.64985  -0.64923  -0.21421  -0.21415
 Alpha  occ. eigenvalues --   -0.18724  -0.18632  -0.14959  -0.14662   0.00138
 Alpha  occ. eigenvalues --    0.00154   0.19466
 Alpha virt. eigenvalues --    0.29072   0.72766   0.74687   1.11845   1.13978
 Alpha virt. eigenvalues --    1.15009   1.15096   1.16001   1.16084   1.16641
 Alpha virt. eigenvalues --    1.20538   1.23471   1.23775   1.24959   1.25258

 Mulliken charges and spin densities:
               1          2
     1  O   -0.441077   0.000000
     2  O   -0.558923   0.000000
     3  O   -0.558923   0.000000
     4  O   -0.441077   0.000000
 Sum of Mulliken charges =  -2.00000   0.00000

 Dipole moment (field-independent basis, Debye):
    X=             -0.0000    Y=             -0.0000    Z=             -0.0000  Tot=              0.0000
 Quadrupole moment (field-independent basis, Debye-Ang):
   XX=            -24.2382   YY=            -25.6645   ZZ=           -116.2987
   XY=              0.0000   XZ=              0.0000   YZ=              0.0000

 CCSD(T)/cc-pVTZ Guess=Read SCF=(VeryTight,CDIIS,VShift=10)\\O2_O2_202\
 3454\CCSD=-300.0106749\CCSD(T)=-300.148451\RMSD=3.581e-09\PG=D*H [C*(O
 Normal termination of Gaussian 16 at Sat Jan 14 21:35:08 2023.
