 Gaussian 16, Revision A.03,
 Gaussian 16:  ES64L-G16RevA.03 25-Dec-2016

 -------------------------------------
 #p CCSD(T)/cc-pVTZ Guess=Read SCF=XQC
 -------------------------------------

 ---------
 O2_O2_247
 ---------
 Symbolic Z-matrix:
 Charge = -2 Multiplicity = 1

                         Standard orientation:
 ---------------------------------------------------------------------
 Center     Atomic      Atomic             Coordinates (Angstroms)
 Number     Number       Type             X           Y           Z
 ---------------------------------------------------------------------
      1          8           0        0.000000    0.000000    2.541161
      2          8           0        0.000000    0.000000    3.893541
      3          8           0        0.000000    0.000000   -3.893541
      4          8           0        0.000000    0.000000   -2.541161
 ---------------------------------------------------------------------

 SCF Done:  E(RHF) =  -298.914548861     A.U. after    8 cycles
 E2 =    -0.1378494810D+01 EUMP2 =    -0.30029304367041D+03
 CCSD(T)
 CCSD(T)= -0.30016059228D+03

 Unable to determine electronic state:  an orbital has unidentified symmetry.
 Alpha  occ. eigenvalues --  -20.21292 -20.21292 -20.20358 -20.20358  -1.03894
 Alpha  occ. eigenvalues --   -1.03890  -0.65908  -0.65874  -0.22330  -0.22329
 Alpha  occ. eigenvalues --   -0.19643  -0.19623  -0.15824  -0.15613  -0.00780
 Alpha  occ. eigenvalues --   -0.00778   0.19062
 Alpha virt. eigenvalues --    0.27605   0.72550   0.72967   1.12072   1.12559
 Alpha virt. eigenvalues --    1.14160   1.14171   1.15152   1.15164   1.16687
 Alpha virt. eigenvalues --    1.17341   1.22669   1.22708   1.24152   1.24190

 Mulliken charges:
               1
     1  O   -0.452241
     2  O   -0.547759
     3  O   -0.547759
     4  O   -0.452241
 Sum of Mulliken charges =  -2.00000

 Dipole moment (field-independent basis, Debye):
    X=             -0.0000    Y=              0.0000    Z=              0.0000  Tot=              0.0000
 Quadrupole moment (field-independent basis, Debye-Ang):
   XX=            -24.2313   YY=            -25.6603   ZZ=           -134.5119
   XY=              0.0000   XZ=              0.0000   YZ=              0.0000

 Normal termination of Gaussian 16 at Wed Jan  4 21:33:17 2023.
