 Gaussian 16, Revision A.03,
 Gaussian 16:  ES64L-G16RevA.03 25-Dec-2016

 ---------------------------------------------------------------
 #p ROCCSD(T)/cc-pVTZ Guess=Read SCF=(VeryTight,CDIIS,VShift=10)
 ---------------------------------------------------------------

 --------
 O2_O2_80
 --------
 Symbolic Z-matrix:
 Charge = -2 Multiplicity = 1

                         Standard orientation:
 ---------------------------------------------------------------------
 Center     Atomic      Atomic             Coordinates (Angstroms)
 Number     Number       Type             X           Y           Z
 ---------------------------------------------------------------------
      1          8           0        0.000000    0.000000    1.358919
      2          8           0        0.000000    0.000000    2.711299
      3          8           0        0.000000    0.000000   -2.711299
      4          8           0        0.000000    0.000000   -1.358919
 ---------------------------------------------------------------------

 SCF Done:  E(ROHF) =  -298.906325558     A.U. after    9 cycles
 E2 =    -0.1186839893D+01 EUMP2 =    -0.30009316545185D+03
 CCSD(T)
 CCSD(T)= -0.30009476479D+03

 Unable to determine electronic state:  an orbital has unidentified symmetry.
 Alpha  occ. eigenvalues --  -20.17974 -20.17972 -20.14722 -20.14722  -0.99538
 Alpha  occ. eigenvalues --   -0.99310  -0.61843  -0.60573  -0.18068  -0.17671
 Alpha  occ. eigenvalues --   -0.16183  -0.13370  -0.11818  -0.10587   0.03423
 Alpha  occ. eigenvalues --    0.04213   0.20211
 Alpha virt. eigenvalues --    0.36138   0.75654   0.82625   1.15828   1.16193
 Alpha virt. eigenvalues --    1.16293   1.17536   1.19282   1.19498   1.20421
 Alpha virt. eigenvalues --    1.23563   1.25007   1.34021   1.35504   1.38338

 Mulliken charges and spin densities:
               1          2
     1  O   -0.373790   0.000000
     2  O   -0.626210   0.000000
     3  O   -0.626210   0.000000
     4  O   -0.373790   0.000000
 Sum of Mulliken charges =  -2.00000   0.00000

 Dipole moment (field-independent basis, Debye):
    X=             -0.0000    Y=              0.0000    Z=              0.0000  Tot=              0.0000
 Quadrupole moment (field-independent basis, Debye-Ang):
   XX=            -24.3763   YY=            -25.6917   ZZ=            -77.4853
   XY=              0.0000   XZ=              0.0000   YZ=              0.0000

 CCSD(T)/cc-pVTZ Guess=Read SCF=(VeryTight,CDIIS,VShift=10)\\O2_O2_80\\
 357\CCSD=-299.9825184\CCSD(T)=-300.0947648\RMSD=3.139e-09\PG=D*H [C*(O
 Normal termination of Gaussian 16 at Sat Jan 14 18:56:22 2023.
