 Gaussian 16, Revision A.03,
 Gaussian 16:  ES64L-G16RevA.03 25-Dec-2016

 -------------------------------------
 #p CCSD(T)/cc-pVTZ Guess=Read SCF=XQC
 -------------------------------------

 ---------
 O2_O2_167
 ---------
 Symbolic Z-matrix:
 Charge = -2 Multiplicity = 1

                         Standard orientation:
 ---------------------------------------------------------------------
 Center     Atomic      Atomic             Coordinates (Angstroms)
 Number     Number       Type             X           Y           Z
 ---------------------------------------------------------------------
      1          8           0        0.000000    0.000000    1.974817
      2          8           0        0.000000    0.000000    3.327197
      3          8           0        0.000000    0.000000   -3.327197
      4          8           0        0.000000    0.000000   -1.974817
 ---------------------------------------------------------------------

 SCF Done:  E(RHF) =  -298.907475631     A.U. after    8 cycles
 E2 =    -0.1294061088D+01 EUMP2 =    -0.30020153671933D+03
 CCSD(T)
 CCSD(T)= -0.30013694026D+03

 Unable to determine electronic state:  an orbital has unidentified symmetry.
 Alpha  occ. eigenvalues --  -20.19787 -20.19786 -20.18326 -20.18326  -1.02147
 Alpha  occ. eigenvalues --   -1.02131  -0.64145  -0.64023  -0.20590  -0.20568
 Alpha  occ. eigenvalues --   -0.17922  -0.17652  -0.14175  -0.13767   0.00971
 Alpha  occ. eigenvalues --    0.01029   0.19797
 Alpha virt. eigenvalues --    0.30494   0.72343   0.76722   1.10007   1.14971
 Alpha virt. eigenvalues --    1.15697   1.16026   1.16393   1.16696   1.17007
 Alpha virt. eigenvalues --    1.23920   1.25093   1.25419   1.26577   1.27216

 Mulliken charges:
               1
     1  O   -0.429403
     2  O   -0.570597
     3  O   -0.570597
     4  O   -0.429403
 Sum of Mulliken charges =  -2.00000

 Dipole moment (field-independent basis, Debye):
    X=             -0.0000    Y=              0.0000    Z=              0.0000  Tot=              0.0000
 Quadrupole moment (field-independent basis, Debye-Ang):
   XX=            -24.2514   YY=            -25.6694   ZZ=           -103.5497
   XY=              0.0000   XZ=              0.0000   YZ=              0.0000

 Normal termination of Gaussian 16 at Wed Jan  4 20:46:15 2023.
