 Gaussian 16, Revision A.03,
 Gaussian 16:  ES64L-G16RevA.03 25-Dec-2016

 ---------------------------------------------------------------
 #p ROCCSD(T)/cc-pVTZ Guess=Read SCF=(VeryTight,CDIIS,VShift=10)
 ---------------------------------------------------------------

 ---------
 O2_O2_246
 ---------
 Symbolic Z-matrix:
 Charge = -2 Multiplicity = 1

                         Standard orientation:
 ---------------------------------------------------------------------
 Center     Atomic      Atomic             Coordinates (Angstroms)
 Number     Number       Type             X           Y           Z
 ---------------------------------------------------------------------
      1          8           0        0.000000    0.000000    2.534081
      2          8           0        0.000000    0.000000    3.886461
      3          8           0        0.000000    0.000000   -3.886461
      4          8           0        0.000000    0.000000   -2.534081
 ---------------------------------------------------------------------

 SCF Done:  E(ROHF) =  -298.914464029     A.U. after    8 cycles
 E2 =    -0.1377473641D+01 EUMP2 =    -0.30029193766970D+03
 CCSD(T)
 CCSD(T)= -0.30016034895D+03

 Unable to determine electronic state:  an orbital has unidentified symmetry.
 Alpha  occ. eigenvalues --  -20.21275 -20.21275 -20.20337 -20.20337  -1.03876
 Alpha  occ. eigenvalues --   -1.03872  -0.65890  -0.65855  -0.22311  -0.22310
 Alpha  occ. eigenvalues --   -0.19624  -0.19604  -0.15806  -0.15594  -0.00761
 Alpha  occ. eigenvalues --   -0.00759   0.19070
 Alpha virt. eigenvalues --    0.27634   0.72561   0.72996   1.12081   1.12586
 Alpha virt. eigenvalues --    1.14177   1.14189   1.15169   1.15182   1.16696
 Alpha virt. eigenvalues --    1.17380   1.22687   1.22728   1.24170   1.24210

 Mulliken charges and spin densities:
               1          2
     1  O   -0.452029   0.000000
     2  O   -0.547971   0.000000
     3  O   -0.547971   0.000000
     4  O   -0.452029   0.000000
 Sum of Mulliken charges =  -2.00000   0.00000

 Dipole moment (field-independent basis, Debye):
    X=             -0.0000    Y=              0.0000    Z=              0.0000  Tot=              0.0000
 Quadrupole moment (field-independent basis, Debye-Ang):
   XX=            -24.2314   YY=            -25.6603   ZZ=           -134.0850
   XY=              0.0000   XZ=              0.0000   YZ=              0.0000

 CCSD(T)/cc-pVTZ Guess=Read SCF=(VeryTight,CDIIS,VShift=10)\\O2_O2_246\
 98\CCSD=-300.0187204\CCSD(T)=-300.160349\RMSD=3.910e-09\PG=D*H [C*(O1O
 Normal termination of Gaussian 16 at Sat Jan 14 22:35:01 2023.
