 Gaussian 16, Revision A.03,
 Gaussian 16:  ES64L-G16RevA.03 25-Dec-2016

 -------------------------------------
 #p CCSD(T)/cc-pVTZ Guess=Read SCF=XQC
 -------------------------------------

 ---------
 O2_O2_296
 ---------
 Symbolic Z-matrix:
 Charge = -2 Multiplicity = 1

                         Standard orientation:
 ---------------------------------------------------------------------
 Center     Atomic      Atomic             Coordinates (Angstroms)
 Number     Number       Type             X           Y           Z
 ---------------------------------------------------------------------
      1          8           0        0.000000    0.000000    2.888046
      2          8           0        0.000000    0.000000    4.240426
      3          8           0        0.000000    0.000000   -4.240426
      4          8           0        0.000000    0.000000   -2.888046
 ---------------------------------------------------------------------

 SCF Done:  E(RHF) =  -298.918386242     A.U. after    8 cycles
 E2 =    -0.1428079582D+01 EUMP2 =    -0.30034646582487D+03
 CCSD(T)
 CCSD(T)= -0.30017130528D+03

 Unable to determine electronic state:  an orbital has unidentified symmetry.
 Alpha  occ. eigenvalues --  -20.22028 -20.22028 -20.21273 -20.21273  -1.04709
 Alpha  occ. eigenvalues --   -1.04707  -0.66735  -0.66712  -0.23144  -0.23144
 Alpha  occ. eigenvalues --   -0.20480  -0.20476  -0.16606  -0.16453  -0.01604
 Alpha  occ. eigenvalues --   -0.01603   0.18681
 Alpha virt. eigenvalues --    0.26327   0.71849   0.71897   1.11456   1.11517
 Alpha virt. eigenvalues --    1.13369   1.13370   1.14363   1.14365   1.16000
 Alpha virt. eigenvalues --    1.16061   1.21858   1.21861   1.23339   1.23342

 Mulliken charges:
               1
     1  O   -0.461161
     2  O   -0.538839
     3  O   -0.538839
     4  O   -0.461161
 Sum of Mulliken charges =  -2.00000

 Dipole moment (field-independent basis, Debye):
    X=             -0.0000    Y=              0.0000    Z=              0.0000  Tot=              0.0000
 Quadrupole moment (field-independent basis, Debye-Ang):
   XX=            -24.2279   YY=            -25.6574   ZZ=           -156.6573
   XY=              0.0000   XZ=              0.0000   YZ=              0.0000

 Normal termination of Gaussian 16 at Wed Jan  4 22:02:33 2023.
