 Gaussian 16, Revision A.03,
 Gaussian 16:  ES64L-G16RevA.03 25-Dec-2016

 ---------------------------------------------------------------
 #p ROCCSD(T)/cc-pVTZ Guess=Read SCF=(VeryTight,CDIIS,VShift=10)
 ---------------------------------------------------------------

 ---------
 O2_O2_262
 ---------
 Symbolic Z-matrix:
 Charge = -2 Multiplicity = 1

                         Standard orientation:
 ---------------------------------------------------------------------
 Center     Atomic      Atomic             Coordinates (Angstroms)
 Number     Number       Type             X           Y           Z
 ---------------------------------------------------------------------
      1          8           0        0.000000    0.000000    2.647350
      2          8           0        0.000000    0.000000    3.999730
      3          8           0        0.000000    0.000000   -3.999730
      4          8           0        0.000000    0.000000   -2.647350
 ---------------------------------------------------------------------

 SCF Done:  E(ROHF) =  -298.915790768     A.U. after    8 cycles
 E2 =    -0.1393758520D+01 EUMP2 =    -0.30030954928760D+03
 CCSD(T)
 CCSD(T)= -0.30016411469D+03

 Unable to determine electronic state:  an orbital has unidentified symmetry.
 Alpha  occ. eigenvalues --  -20.21532 -20.21532 -20.20660 -20.20660  -1.04161
 Alpha  occ. eigenvalues --   -1.04158  -0.66179  -0.66149  -0.22597  -0.22596
 Alpha  occ. eigenvalues --   -0.19917  -0.19905  -0.16079  -0.15889  -0.01050
 Alpha  occ. eigenvalues --   -0.01049   0.18938
 Alpha virt. eigenvalues --    0.27184   0.72354   0.72581   1.11915   1.12184
 Alpha virt. eigenvalues --    1.13902   1.13908   1.14895   1.14901   1.16516
 Alpha virt. eigenvalues --    1.16844   1.22408   1.22426   1.23889   1.23907

 Mulliken charges and spin densities:
               1          2
     1  O   -0.455271   0.000000
     2  O   -0.544729   0.000000
     3  O   -0.544729   0.000000
     4  O   -0.455271   0.000000
 Sum of Mulliken charges =  -2.00000   0.00000

 Dipole moment (field-independent basis, Debye):
    X=             -0.0000    Y=             -0.0000    Z=             -0.0000  Tot=              0.0000
 Quadrupole moment (field-independent basis, Debye-Ang):
   XX=            -24.2300   YY=            -25.6592   ZZ=           -141.0358
   XY=              0.0000   XZ=              0.0000   YZ=              0.0000

 CCSD(T)/cc-pVTZ Guess=Read SCF=(VeryTight,CDIIS,VShift=10)\\O2_O2_262\
 7764\CCSD=-300.0213213\CCSD(T)=-300.1641147\RMSD=3.567e-09\PG=D*H [C*(
 Normal termination of Gaussian 16 at Sat Jan 14 22:55:24 2023.
