 Gaussian 16, Revision A.03,
 Gaussian 16:  ES64L-G16RevA.03 25-Dec-2016

 -------------------------------------
 #p CCSD(T)/cc-pVTZ Guess=Read SCF=XQC
 -------------------------------------

 ---------
 O2_O2_255
 ---------
 Symbolic Z-matrix:
 Charge = -2 Multiplicity = 1

                         Standard orientation:
 ---------------------------------------------------------------------
 Center     Atomic      Atomic             Coordinates (Angstroms)
 Number     Number       Type             X           Y           Z
 ---------------------------------------------------------------------
      1          8           0        0.000000    0.000000    2.597795
      2          8           0        0.000000    0.000000    3.950175
      3          8           0        0.000000    0.000000   -3.950175
      4          8           0        0.000000    0.000000   -2.597795
 ---------------------------------------------------------------------

 SCF Done:  E(RHF) =  -298.915218447     A.U. after    8 cycles
 E2 =    -0.1386647166D+01 EUMP2 =    -0.30030186561264D+03
 CCSD(T)
 CCSD(T)= -0.30016249891D+03

 Unable to determine electronic state:  an orbital has unidentified symmetry.
 Alpha  occ. eigenvalues --  -20.21422 -20.21421 -20.20522 -20.20522  -1.04039
 Alpha  occ. eigenvalues --   -1.04035  -0.66055  -0.66023  -0.22474  -0.22474
 Alpha  occ. eigenvalues --   -0.19791  -0.19776  -0.15962  -0.15762  -0.00926
 Alpha  occ. eigenvalues --   -0.00924   0.18995
 Alpha virt. eigenvalues --    0.27377   0.72449   0.72753   1.11995   1.12352
 Alpha virt. eigenvalues --    1.14021   1.14028   1.15013   1.15021   1.16603
 Alpha virt. eigenvalues --    1.17058   1.22528   1.22555   1.24010   1.24036

 Mulliken charges:
               1
     1  O   -0.453894
     2  O   -0.546106
     3  O   -0.546106
     4  O   -0.453894
 Sum of Mulliken charges =  -2.00000

 Dipole moment (field-independent basis, Debye):
    X=             -0.0000    Y=              0.0000    Z=              0.0000  Tot=              0.0000
 Quadrupole moment (field-independent basis, Debye-Ang):
   XX=            -24.2305   YY=            -25.6597   ZZ=           -137.9632
   XY=              0.0000   XZ=              0.0000   YZ=              0.0000

 Normal termination of Gaussian 16 at Wed Jan  4 21:37:59 2023.
