 Gaussian 16, Revision A.03,
 Gaussian 16:  ES64L-G16RevA.03 25-Dec-2016

 ---------------------------------------------------------------
 #p ROCCSD(T)/cc-pVTZ Guess=Read SCF=(VeryTight,CDIIS,VShift=10)
 ---------------------------------------------------------------

 ---------
 O2_O2_298
 ---------
 Symbolic Z-matrix:
 Charge = -2 Multiplicity = 1

                         Standard orientation:
 ---------------------------------------------------------------------
 Center     Atomic      Atomic             Coordinates (Angstroms)
 Number     Number       Type             X           Y           Z
 ---------------------------------------------------------------------
      1          8           0        0.000000    0.000000    2.902204
      2          8           0        0.000000    0.000000    4.254584
      3          8           0        0.000000    0.000000   -4.254584
      4          8           0        0.000000    0.000000   -2.902204
 ---------------------------------------------------------------------

 SCF Done:  E(ROHF) =  -298.918529550     A.U. after    8 cycles
 E2 =    -0.1430089459D+01 EUMP2 =    -0.30034861900851D+03
 CCSD(T)
 CCSD(T)= -0.30017169779D+03

 Unable to determine electronic state:  an orbital has unidentified symmetry.
 Alpha  occ. eigenvalues --  -20.22055 -20.22055 -20.21306 -20.21306  -1.04739
 Alpha  occ. eigenvalues --   -1.04737  -0.66765  -0.66743  -0.23174  -0.23174
 Alpha  occ. eigenvalues --   -0.20511  -0.20507  -0.16635  -0.16484  -0.01634
 Alpha  occ. eigenvalues --   -0.01634   0.18667
 Alpha virt. eigenvalues --    0.26281   0.71819   0.71862   1.11428   1.11483
 Alpha virt. eigenvalues --    1.13340   1.13341   1.14334   1.14335   1.15969
 Alpha virt. eigenvalues --    1.16023   1.21828   1.21831   1.23309   1.23311

 Mulliken charges and spin densities:
               1          2
     1  O   -0.461471   0.000000
     2  O   -0.538529   0.000000
     3  O   -0.538529   0.000000
     4  O   -0.461471   0.000000
 Sum of Mulliken charges =  -2.00000   0.00000

 Dipole moment (field-independent basis, Debye):
    X=             -0.0000    Y=              0.0000    Z=             -0.0000  Tot=              0.0000
 Quadrupole moment (field-independent basis, Debye-Ang):
   XX=            -24.2278   YY=            -25.6573   ZZ=           -157.6122
   XY=              0.0000   XZ=              0.0000   YZ=              0.0000

 CCSD(T)/cc-pVTZ Guess=Read SCF=(VeryTight,CDIIS,VShift=10)\\O2_O2_298\
 77\CCSD=-300.0266031\CCSD(T)=-300.1716978\RMSD=2.851e-09\PG=D*H [C*(O1
 Normal termination of Gaussian 16 at Sat Jan 14 23:44:55 2023.
