 Gaussian 16, Revision A.03,
 Gaussian 16:  ES64L-G16RevA.03 25-Dec-2016

 -------------------------------------
 #p CCSD(T)/cc-pVTZ Guess=Read SCF=XQC
 -------------------------------------

 ---------
 O2_O2_253
 ---------
 Symbolic Z-matrix:
 Charge = -2 Multiplicity = 1

                         Standard orientation:
 ---------------------------------------------------------------------
 Center     Atomic      Atomic             Coordinates (Angstroms)
 Number     Number       Type             X           Y           Z
 ---------------------------------------------------------------------
      1          8           0        0.000000    0.000000    2.583636
      2          8           0        0.000000    0.000000    3.936016
      3          8           0        0.000000    0.000000   -3.936016
      4          8           0        0.000000    0.000000   -2.583636
 ---------------------------------------------------------------------

 SCF Done:  E(RHF) =  -298.915052580     A.U. after    8 cycles
 E2 =    -0.1384611737D+01 EUMP2 =    -0.30029966431664D+03
 CCSD(T)
 CCSD(T)= -0.30016202896D+03

 Unable to determine electronic state:  an orbital has unidentified symmetry.
 Alpha  occ. eigenvalues --  -20.21390 -20.21389 -20.20481 -20.20481  -1.04003
 Alpha  occ. eigenvalues --   -1.03999  -0.66019  -0.65986  -0.22439  -0.22438
 Alpha  occ. eigenvalues --   -0.19754  -0.19739  -0.15928  -0.15725  -0.00890
 Alpha  occ. eigenvalues --   -0.00888   0.19012
 Alpha virt. eigenvalues --    0.27433   0.72475   0.72804   1.12016   1.12402
 Alpha virt. eigenvalues --    1.14055   1.14064   1.15047   1.15056   1.16626
 Alpha virt. eigenvalues --    1.17125   1.22563   1.22592   1.24046   1.24074

 Mulliken charges:
               1
     1  O   -0.453489
     2  O   -0.546511
     3  O   -0.546511
     4  O   -0.453489
 Sum of Mulliken charges =  -2.00000

 Dipole moment (field-independent basis, Debye):
    X=             -0.0000    Y=              0.0000    Z=             -0.0000  Tot=              0.0000
 Quadrupole moment (field-independent basis, Debye-Ang):
   XX=            -24.2307   YY=            -25.6598   ZZ=           -137.0944
   XY=              0.0000   XZ=              0.0000   YZ=              0.0000

 Normal termination of Gaussian 16 at Wed Jan  4 21:36:47 2023.
