 Gaussian 16, Revision A.03,
 Gaussian 16:  ES64L-G16RevA.03 25-Dec-2016

 ---------------------------------------------------------------
 #p ROCCSD(T)/cc-pVTZ Guess=Read SCF=(VeryTight,CDIIS,VShift=10)
 ---------------------------------------------------------------

 ---------
 O2_O2_251
 ---------
 Symbolic Z-matrix:
 Charge = -2 Multiplicity = 1

                         Standard orientation:
 ---------------------------------------------------------------------
 Center     Atomic      Atomic             Coordinates (Angstroms)
 Number     Number       Type             X           Y           Z
 ---------------------------------------------------------------------
      1          8           0        0.000000    0.000000    2.569478
      2          8           0        0.000000    0.000000    3.921858
      3          8           0        0.000000    0.000000   -3.921858
      4          8           0        0.000000    0.000000   -2.569478
 ---------------------------------------------------------------------

 SCF Done:  E(ROHF) =  -298.914885685     A.U. after    8 cycles
 E2 =    -0.1382574581D+01 EUMP2 =    -0.30029746026616D+03
 CCSD(T)
 CCSD(T)= -0.30016155486D+03

 Unable to determine electronic state:  an orbital has unidentified symmetry.
 Alpha  occ. eigenvalues --  -20.21357 -20.21357 -20.20441 -20.20441  -1.03967
 Alpha  occ. eigenvalues --   -1.03963  -0.65982  -0.65949  -0.22403  -0.22402
 Alpha  occ. eigenvalues --   -0.19717  -0.19701  -0.15893  -0.15688  -0.00854
 Alpha  occ. eigenvalues --   -0.00852   0.19028
 Alpha virt. eigenvalues --    0.27490   0.72501   0.72857   1.12036   1.12453
 Alpha virt. eigenvalues --    1.14090   1.14099   1.15082   1.15092   1.16648
 Alpha virt. eigenvalues --    1.17194   1.22599   1.22631   1.24081   1.24112

 Mulliken charges and spin densities:
               1          2
     1  O   -0.453078   0.000000
     2  O   -0.546922   0.000000
     3  O   -0.546922   0.000000
     4  O   -0.453078   0.000000
 Sum of Mulliken charges =  -2.00000   0.00000

 Dipole moment (field-independent basis, Debye):
    X=             -0.0000    Y=              0.0000    Z=              0.0000  Tot=              0.0000
 Quadrupole moment (field-independent basis, Debye-Ang):
   XX=            -24.2309   YY=            -25.6600   ZZ=           -136.2295
   XY=              0.0000   XZ=              0.0000   YZ=              0.0000

 CCSD(T)/cc-pVTZ Guess=Read SCF=(VeryTight,CDIIS,VShift=10)\\O2_O2_251\
 1569\CCSD=-300.0195512\CCSD(T)=-300.1615549\RMSD=3.808e-09\PG=D*H [C*(
 Normal termination of Gaussian 16 at Sat Jan 14 22:41:27 2023.
