 Gaussian 16, Revision A.03,
 Gaussian 16:  ES64L-G16RevA.03 25-Dec-2016

 ---------------------------------------------------------------
 #p ROCCSD(T)/cc-pVTZ Guess=Read SCF=(VeryTight,CDIIS,VShift=10)
 ---------------------------------------------------------------

 ---------
 O2_O2_224
 ---------
 Symbolic Z-matrix:
 Charge = -2 Multiplicity = 1

                         Standard orientation:
 ---------------------------------------------------------------------
 Center     Atomic      Atomic             Coordinates (Angstroms)
 Number     Number       Type             X           Y           Z
 ---------------------------------------------------------------------
      1          8           0        0.000000    0.000000    2.378337
      2          8           0        0.000000    0.000000    3.730717
      3          8           0        0.000000    0.000000   -3.730717
      4          8           0        0.000000    0.000000   -2.378337
 ---------------------------------------------------------------------

 SCF Done:  E(ROHF) =  -298.912540979     A.U. after    8 cycles
 E2 =    -0.1354863717D+01 EUMP2 =    -0.30026740469675D+03
 CCSD(T)
 CCSD(T)= -0.30015470842D+03

 Unable to determine electronic state:  an orbital has unidentified symmetry.
 Alpha  occ. eigenvalues --  -20.20897 -20.20897 -20.19853 -20.19853  -1.03450
 Alpha  occ. eigenvalues --   -1.03445  -0.65458  -0.65413  -0.21886  -0.21884
 Alpha  occ. eigenvalues --   -0.19191  -0.19148  -0.15401  -0.15151  -0.00332
 Alpha  occ. eigenvalues --   -0.00325   0.19263
 Alpha virt. eigenvalues --    0.28313   0.72755   0.73723   1.12154   1.13248
 Alpha virt. eigenvalues --    1.14581   1.14615   1.15572   1.15605   1.16784
 Alpha virt. eigenvalues --    1.18513   1.23084   1.23201   1.24569   1.24683

 Mulliken charges and spin densities:
               1          2
     1  O   -0.446969   0.000000
     2  O   -0.553031   0.000000
     3  O   -0.553031   0.000000
     4  O   -0.446969   0.000000
 Sum of Mulliken charges =  -2.00000   0.00000

 Dipole moment (field-independent basis, Debye):
    X=             -0.0000    Y=              0.0000    Z=             -0.0000  Tot=              0.0000
 Quadrupole moment (field-independent basis, Debye-Ang):
   XX=            -24.2340   YY=            -25.6622   ZZ=           -124.9479
   XY=              0.0000   XZ=              0.0000   YZ=              0.0000

 CCSD(T)/cc-pVTZ Guess=Read SCF=(VeryTight,CDIIS,VShift=10)\\O2_O2_224\
 57\CCSD=-300.0148654\CCSD(T)=-300.1547084\RMSD=4.143e-09\PG=D*H [C*(O1
 Normal termination of Gaussian 16 at Sat Jan 14 22:05:55 2023.
