 Gaussian 16, Revision A.03,
 Gaussian 16:  ES64L-G16RevA.03 25-Dec-2016

 -------------------------------------
 #p CCSD(T)/cc-pVTZ Guess=Read SCF=XQC
 -------------------------------------

 ---------
 O2_O2_191
 ---------
 Symbolic Z-matrix:
 Charge = -2 Multiplicity = 1

                         Standard orientation:
 ---------------------------------------------------------------------
 Center     Atomic      Atomic             Coordinates (Angstroms)
 Number     Number       Type             X           Y           Z
 ---------------------------------------------------------------------
      1          8           0        0.000000    0.000000    2.144720
      2          8           0        0.000000    0.000000    3.497100
      3          8           0        0.000000    0.000000   -3.497100
      4          8           0        0.000000    0.000000   -2.144720
 ---------------------------------------------------------------------

 SCF Done:  E(RHF) =  -298.909547134     A.U. after    8 cycles
 E2 =    -0.1320189232D+01 EUMP2 =    -0.30022973636590D+03
 CCSD(T)
 CCSD(T)= -0.30014505656D+03

 Unable to determine electronic state:  an orbital has unidentified symmetry.
 Alpha  occ. eigenvalues --  -20.20274 -20.20274 -20.19023 -20.19023  -1.02733
 Alpha  occ. eigenvalues --   -1.02723  -0.64733  -0.64657  -0.21172  -0.21162
 Alpha  occ. eigenvalues --   -0.18479  -0.18348  -0.14723  -0.14397   0.00389
 Alpha  occ. eigenvalues --    0.00413   0.19570
 Alpha virt. eigenvalues --    0.29488   0.72683   0.75267   1.11449   1.14326
 Alpha virt. eigenvalues --    1.15228   1.15363   1.16220   1.16349   1.16525
 Alpha virt. eigenvalues --    1.22090   1.23645   1.24121   1.25135   1.25605

 Mulliken charges:
               1
     1  O   -0.437755
     2  O   -0.562245
     3  O   -0.562245
     4  O   -0.437755
 Sum of Mulliken charges =  -2.00000

 Dipole moment (field-independent basis, Debye):
    X=             -0.0000    Y=              0.0000    Z=             -0.0000  Tot=              0.0000
 Quadrupole moment (field-independent basis, Debye-Ang):
   XX=            -24.2412   YY=            -25.6658   ZZ=           -112.1574
   XY=              0.0000   XZ=              0.0000   YZ=              0.0000

 Normal termination of Gaussian 16 at Wed Jan  4 21:00:31 2023.
