 Gaussian 16, Revision A.03,
 Gaussian 16:  ES64L-G16RevA.03 25-Dec-2016

 ---------------------------------------------------------------
 #p ROCCSD(T)/cc-pVTZ Guess=Read SCF=(VeryTight,CDIIS,VShift=10)
 ---------------------------------------------------------------

 --------
 O2_O2_22
 --------
 Symbolic Z-matrix:
 Charge = -2 Multiplicity = 1

                         Standard orientation:
 ---------------------------------------------------------------------
 Center     Atomic      Atomic             Coordinates (Angstroms)
 Number     Number       Type             X           Y           Z
 ---------------------------------------------------------------------
      1          8           0        0.000000    0.000000    0.948320
      2          8           0        0.000000    0.000000    2.300700
      3          8           0        0.000000    0.000000   -2.300700
      4          8           0        0.000000    0.000000   -0.948320
 ---------------------------------------------------------------------

 SCF Done:  E(ROHF) =  -298.899604094     A.U. after   10 cycles
 E2 =    -0.1107941954D+01 EUMP2 =    -0.30000754604815D+03
 CCSD(T)
 CCSD(T)= -0.30002973318D+03

 Unable to determine electronic state:  an orbital has unidentified symmetry.
 Alpha  occ. eigenvalues --  -20.16588 -20.16584 -20.10072 -20.10072  -0.98007
 Alpha  occ. eigenvalues --   -0.95959  -0.62981  -0.54911  -0.17676  -0.16811
 Alpha  occ. eigenvalues --   -0.14104  -0.10557  -0.06759  -0.04663   0.04997
 Alpha  occ. eigenvalues --    0.08511   0.18556
 Alpha virt. eigenvalues --    0.44044   0.79921   0.88343   1.17247   1.17964
 Alpha virt. eigenvalues --    1.18419   1.20182   1.22647   1.23445   1.26641
 Alpha virt. eigenvalues --    1.28158   1.39122   1.39549   1.42909   1.44424

 Mulliken charges and spin densities:
               1          2
     1  O   -0.273985   0.000000
     2  O   -0.726015   0.000000
     3  O   -0.726015  -0.000000
     4  O   -0.273985   0.000000
 Sum of Mulliken charges =  -2.00000   0.00000

 Dipole moment (field-independent basis, Debye):
    X=             -0.0000    Y=              0.0000    Z=              0.0000  Tot=              0.0000
 Quadrupole moment (field-independent basis, Debye-Ang):
   XX=            -24.4946   YY=            -25.6721   ZZ=            -65.6909
   XY=              0.0000   XZ=              0.0000   YZ=              0.0000

 CCSD(T)/cc-pVTZ Guess=Read SCF=(VeryTight,CDIIS,VShift=10)\\O2_O2_22\\
 CCSD=-299.9484264\CCSD(T)=-300.0297332\RMSD=9.065e-10\PG=D*H [C*(O1O1.
 Normal termination of Gaussian 16 at Sat Jan 14 17:45:35 2023.
