 Gaussian 16, Revision A.03,
 Gaussian 16:  ES64L-G16RevA.03 25-Dec-2016

 ---------------------------------------------------------------
 #p ROCCSD(T)/cc-pVTZ Guess=Read SCF=(VeryTight,CDIIS,VShift=10)
 ---------------------------------------------------------------

 ---------
 O2_O2_265
 ---------
 Symbolic Z-matrix:
 Charge = -2 Multiplicity = 1

                         Standard orientation:
 ---------------------------------------------------------------------
 Center     Atomic      Atomic             Coordinates (Angstroms)
 Number     Number       Type             X           Y           Z
 ---------------------------------------------------------------------
      1          8           0        0.000000    0.000000    2.668588
      2          8           0        0.000000    0.000000    4.020968
      3          8           0        0.000000    0.000000   -4.020968
      4          8           0        0.000000    0.000000   -2.668588
 ---------------------------------------------------------------------

 SCF Done:  E(ROHF) =  -298.916032092     A.U. after    8 cycles
 E2 =    -0.1396800661D+01 EUMP2 =    -0.30031283275294D+03
 CCSD(T)
 CCSD(T)= -0.30016479007D+03

 Unable to determine electronic state:  an orbital has unidentified symmetry.
 Alpha  occ. eigenvalues --  -20.21578 -20.21578 -20.20718 -20.20718  -1.04213
 Alpha  occ. eigenvalues --   -1.04209  -0.66232  -0.66202  -0.22648  -0.22648
 Alpha  occ. eigenvalues --   -0.19969  -0.19959  -0.16129  -0.15942  -0.01102
 Alpha  occ. eigenvalues --   -0.01101   0.18914
 Alpha virt. eigenvalues --    0.27103   0.72312   0.72511   1.11879   1.12116
 Alpha virt. eigenvalues --    1.13852   1.13857   1.14845   1.14850   1.16475
 Alpha virt. eigenvalues --    1.16760   1.22356   1.22372   1.23838   1.23853

 Mulliken charges and spin densities:
               1          2
     1  O   -0.455843   0.000000
     2  O   -0.544157   0.000000
     3  O   -0.544157   0.000000
     4  O   -0.455843   0.000000
 Sum of Mulliken charges =  -2.00000   0.00000

 Dipole moment (field-independent basis, Debye):
    X=             -0.0000    Y=              0.0000    Z=             -0.0000  Tot=              0.0000
 Quadrupole moment (field-independent basis, Debye-Ang):
   XX=            -24.2298   YY=            -25.6590   ZZ=           -142.3677
   XY=              0.0000   XZ=              0.0000   YZ=              0.0000

 CCSD(T)/cc-pVTZ Guess=Read SCF=(VeryTight,CDIIS,VShift=10)\\O2_O2_265\
 7515\CCSD=-300.02179\CCSD(T)=-300.1647901\RMSD=3.502e-09\PG=D*H [C*(O1
 Normal termination of Gaussian 16 at Sat Jan 14 22:59:35 2023.
