 Gaussian 16, Revision A.03,
 Gaussian 16:  ES64L-G16RevA.03 25-Dec-2016

 ---------------------------------------------------------------
 #p ROCCSD(T)/cc-pVTZ Guess=Read SCF=(VeryTight,CDIIS,VShift=10)
 ---------------------------------------------------------------

 ---------
 O2_O2_175
 ---------
 Symbolic Z-matrix:
 Charge = -2 Multiplicity = 1

                         Standard orientation:
 ---------------------------------------------------------------------
 Center     Atomic      Atomic             Coordinates (Angstroms)
 Number     Number       Type             X           Y           Z
 ---------------------------------------------------------------------
      1          8           0        0.000000    0.000000    2.031452
      2          8           0        0.000000    0.000000    3.383832
      3          8           0        0.000000    0.000000   -3.383832
      4          8           0        0.000000    0.000000   -2.031452
 ---------------------------------------------------------------------

 SCF Done:  E(ROHF) =  -298.908140307     A.U. after    8 cycles
 E2 =    -0.1302879556D+01 EUMP2 =    -0.30021101986302D+03
 CCSD(T)
 CCSD(T)= -0.30013976359D+03

 Unable to determine electronic state:  an orbital has unidentified symmetry.
 Alpha  occ. eigenvalues --  -20.19952 -20.19951 -20.18568 -20.18568  -1.02349
 Alpha  occ. eigenvalues --   -1.02335  -0.64346  -0.64244  -0.20790  -0.20773
 Alpha  occ. eigenvalues --   -0.18110  -0.17897  -0.14363  -0.13986   0.00772
 Alpha  occ. eigenvalues --    0.00816   0.19722
 Alpha virt. eigenvalues --    0.30141   0.72469   0.76213   1.10550   1.14776
 Alpha virt. eigenvalues --    1.15544   1.15792   1.16406   1.16540   1.16774
 Alpha virt. eigenvalues --    1.23849   1.24729   1.25212   1.25345   1.26213

 Mulliken charges and spin densities:
               1          2
     1  O   -0.432378  -0.000000
     2  O   -0.567622  -0.000000
     3  O   -0.567622  -0.000000
     4  O   -0.432378  -0.000000
 Sum of Mulliken charges =  -2.00000  -0.00000

 Dipole moment (field-independent basis, Debye):
    X=             -0.0000    Y=             -0.0000    Z=              0.0000  Tot=              0.0000
 Quadrupole moment (field-independent basis, Debye-Ang):
   XX=            -24.2474   YY=            -25.6681   ZZ=           -106.3533
   XY=              0.0000   XZ=              0.0000   YZ=              0.0000

 CCSD(T)/cc-pVTZ Guess=Read SCF=(VeryTight,CDIIS,VShift=10)\\O2_O2_175\
 8237\CCSD=-300.0050846\CCSD(T)=-300.1397636\RMSD=3.853e-09\PG=D*H [C*(
 Normal termination of Gaussian 16 at Sat Jan 14 20:58:20 2023.
