 Gaussian 16, Revision A.03,
 Gaussian 16:  ES64L-G16RevA.03 25-Dec-2016

 -------------------------------------
 #p CCSD(T)/cc-pVTZ Guess=Read SCF=XQC
 -------------------------------------

 --------
 O2_O2_65
 --------
 Symbolic Z-matrix:
 Charge = -2 Multiplicity = 1

                         Standard orientation:
 ---------------------------------------------------------------------
 Center     Atomic      Atomic             Coordinates (Angstroms)
 Number     Number       Type             X           Y           Z
 ---------------------------------------------------------------------
      1          8           0        0.000000    0.000000    1.252730
      2          8           0        0.000000    0.000000    2.605110
      3          8           0        0.000000    0.000000   -2.605110
      4          8           0        0.000000    0.000000   -1.252730
 ---------------------------------------------------------------------

 SCF Done:  E(RHF) =  -298.907969995     A.U. after    9 cycles
 E2 =    -0.1165969822D+01 EUMP2 =    -0.30007393981697D+03
 CCSD(T)
 CCSD(T)= -0.30008395066D+03

 Unable to determine electronic state:  an orbital has unidentified symmetry.
 Alpha  occ. eigenvalues --  -20.17667 -20.17665 -20.13806 -20.13806  -0.99031
 Alpha  occ. eigenvalues --   -0.98641  -0.61605  -0.59582  -0.17605  -0.16965
 Alpha  occ. eigenvalues --   -0.16162  -0.11999  -0.11387  -0.09804   0.03868
 Alpha  occ. eigenvalues --    0.05040   0.20069
 Alpha virt. eigenvalues --    0.37682   0.76913   0.83779   1.15966   1.16210
 Alpha virt. eigenvalues --    1.17520   1.17702   1.20224   1.21126   1.23856
 Alpha virt. eigenvalues --    1.24655   1.25264   1.36473   1.37955   1.38655

 Mulliken charges:
               1
     1  O   -0.356124
     2  O   -0.643876
     3  O   -0.643876
     4  O   -0.356124
 Sum of Mulliken charges =  -2.00000

 Dipole moment (field-independent basis, Debye):
    X=             -0.0000    Y=              0.0000    Z=              0.0000  Tot=              0.0000
 Quadrupole moment (field-independent basis, Debye-Ang):
   XX=            -24.4163   YY=            -25.6967   ZZ=            -73.8795
   XY=              0.0000   XZ=              0.0000   YZ=              0.0000

 824\MP4DQ=-299.95109\MP4SDQ=-299.9775567\CCSD=-299.9783008\CCSD(T)=-30
 Normal termination of Gaussian 16 at Wed Jan  4 19:48:48 2023.
