 Gaussian 16, Revision A.03,
 Gaussian 16:  ES64L-G16RevA.03 25-Dec-2016

 -------------------------------------
 #p CCSD(T)/cc-pVTZ Guess=Read SCF=XQC
 -------------------------------------

 ---------
 O2_O2_274
 ---------
 Symbolic Z-matrix:
 Charge = -2 Multiplicity = 1

                         Standard orientation:
 ---------------------------------------------------------------------
 Center     Atomic      Atomic             Coordinates (Angstroms)
 Number     Number       Type             X           Y           Z
 ---------------------------------------------------------------------
      1          8           0        0.000000    0.000000    2.732301
      2          8           0        0.000000    0.000000    4.084681
      3          8           0        0.000000    0.000000   -4.084681
      4          8           0        0.000000    0.000000   -2.732301
 ---------------------------------------------------------------------

 SCF Done:  E(RHF) =  -298.916741687     A.U. after    8 cycles
 E2 =    -0.1405909034D+01 EUMP2 =    -0.30032265072087D+03
 CCSD(T)
 CCSD(T)= -0.30016676962D+03

 Unable to determine electronic state:  an orbital has unidentified symmetry.
 Alpha  occ. eigenvalues --  -20.21714 -20.21714 -20.20887 -20.20887  -1.04363
 Alpha  occ. eigenvalues --   -1.04360  -0.66384  -0.66357  -0.22799  -0.22798
 Alpha  occ. eigenvalues --   -0.20124  -0.20117  -0.16273  -0.16097  -0.01254
 Alpha  occ. eigenvalues --   -0.01254   0.18844
 Alpha virt. eigenvalues --    0.26867   0.72180   0.72314   1.11762   1.11924
 Alpha virt. eigenvalues --    1.13706   1.13709   1.14699   1.14703   1.16345
 Alpha virt. eigenvalues --    1.16529   1.22206   1.22216   1.23687   1.23697

 Mulliken charges:
               1
     1  O   -0.457493
     2  O   -0.542507
     3  O   -0.542507
     4  O   -0.457493
 Sum of Mulliken charges =  -2.00000

 Dipole moment (field-independent basis, Debye):
    X=             -0.0000    Y=              0.0000    Z=              0.0000  Tot=              0.0000
 Quadrupole moment (field-independent basis, Debye-Ang):
   XX=            -24.2291   YY=            -25.6585   ZZ=           -146.4174
   XY=              0.0000   XZ=              0.0000   YZ=              0.0000

 Normal termination of Gaussian 16 at Wed Jan  4 21:48:59 2023.
