 Gaussian 16, Revision A.03,
 Gaussian 16:  ES64L-G16RevA.03 25-Dec-2016

 -------------------------------------
 #p CCSD(T)/cc-pVTZ Guess=Read SCF=XQC
 -------------------------------------

 ---------
 O2_O2_248
 ---------
 Symbolic Z-matrix:
 Charge = -2 Multiplicity = 1

                         Standard orientation:
 ---------------------------------------------------------------------
 Center     Atomic      Atomic             Coordinates (Angstroms)
 Number     Number       Type             X           Y           Z
 ---------------------------------------------------------------------
      1          8           0        0.000000    0.000000    2.548240
      2          8           0        0.000000    0.000000    3.900620
      3          8           0        0.000000    0.000000   -3.900620
      4          8           0        0.000000    0.000000   -2.548240
 ---------------------------------------------------------------------

 SCF Done:  E(RHF) =  -298.914633439     A.U. after    8 cycles
 E2 =    -0.1379515421D+01 EUMP2 =    -0.30029414886054D+03
 CCSD(T)
 CCSD(T)= -0.30016083445D+03

 Unable to determine electronic state:  an orbital has unidentified symmetry.
 Alpha  occ. eigenvalues --  -20.21308 -20.21308 -20.20379 -20.20379  -1.03912
 Alpha  occ. eigenvalues --   -1.03908  -0.65927  -0.65893  -0.22348  -0.22347
 Alpha  occ. eigenvalues --   -0.19661  -0.19643  -0.15841  -0.15632  -0.00799
 Alpha  occ. eigenvalues --   -0.00796   0.19053
 Alpha virt. eigenvalues --    0.27576   0.72538   0.72939   1.12064   1.12532
 Alpha virt. eigenvalues --    1.14142   1.14153   1.15134   1.15145   1.16678
 Alpha virt. eigenvalues --    1.17303   1.22652   1.22689   1.24134   1.24170

 Mulliken charges:
               1
     1  O   -0.452453
     2  O   -0.547547
     3  O   -0.547547
     4  O   -0.452453
 Sum of Mulliken charges =  -2.00000

 Dipole moment (field-independent basis, Debye):
    X=             -0.0000    Y=              0.0000    Z=              0.0000  Tot=              0.0000
 Quadrupole moment (field-independent basis, Debye-Ang):
   XX=            -24.2312   YY=            -25.6602   ZZ=           -134.9398
   XY=              0.0000   XZ=              0.0000   YZ=              0.0000

 Normal termination of Gaussian 16 at Wed Jan  4 21:33:52 2023.
