 Gaussian 16, Revision A.03,
 Gaussian 16:  ES64L-G16RevA.03 25-Dec-2016

 ---------------------------------------------------------------
 #p ROCCSD(T)/cc-pVTZ Guess=Read SCF=(VeryTight,CDIIS,VShift=10)
 ---------------------------------------------------------------

 ---------
 O2_O2_151
 ---------
 Symbolic Z-matrix:
 Charge = -2 Multiplicity = 1

                         Standard orientation:
 ---------------------------------------------------------------------
 Center     Atomic      Atomic             Coordinates (Angstroms)
 Number     Number       Type             X           Y           Z
 ---------------------------------------------------------------------
      1          8           0        0.000000    0.000000    1.861548
      2          8           0        0.000000    0.000000    3.213929
      3          8           0        0.000000    0.000000   -3.213929
      4          8           0        0.000000    0.000000   -1.861548
 ---------------------------------------------------------------------

 SCF Done:  E(ROHF) =  -298.906277151     A.U. after    8 cycles
 E2 =    -0.1276025752D+01 EUMP2 =    -0.30018230290298D+03
 CCSD(T)
 CCSD(T)= -0.30013089332D+03

 Unable to determine electronic state:  an orbital has unidentified symmetry.
 Alpha  occ. eigenvalues --  -20.19452 -20.19451 -20.17808 -20.17808  -1.01725
 Alpha  occ. eigenvalues --   -1.01700  -0.63726  -0.63550  -0.20173  -0.20134
 Alpha  occ. eigenvalues --   -0.17540  -0.17115  -0.13783  -0.13302   0.01386
 Alpha  occ. eigenvalues --    0.01485   0.19941
 Alpha virt. eigenvalues --    0.31256   0.72153   0.77785   1.08993   1.15299
 Alpha virt. eigenvalues --    1.15979   1.16475   1.16540   1.16990   1.17515
 Alpha virt. eigenvalues --    1.23980   1.25487   1.25985   1.27469   1.32164

 Mulliken charges and spin densities:
               1          2
     1  O   -0.422756   0.000000
     2  O   -0.577244   0.000000
     3  O   -0.577244   0.000000
     4  O   -0.422756   0.000000
 Sum of Mulliken charges =  -2.00000   0.00000

 Dipole moment (field-independent basis, Debye):
    X=             -0.0000    Y=              0.0000    Z=              0.0000  Tot=              0.0000
 Quadrupole moment (field-independent basis, Debye-Ang):
   XX=            -24.2621   YY=            -25.6723   ZZ=            -98.1421
   XY=              0.0000   XZ=              0.0000   YZ=              0.0000

 CCSD(T)/cc-pVTZ Guess=Read SCF=(VeryTight,CDIIS,VShift=10)\\O2_O2_151\
 64\CCSD=-299.9997444\CCSD(T)=-300.1308933\RMSD=7.744e-09\PG=D*H [C*(O1
 Normal termination of Gaussian 16 at Sat Jan 14 20:26:44 2023.
