 Gaussian 16, Revision A.03,
 Gaussian 16:  ES64L-G16RevA.03 25-Dec-2016

 ---------------------------------------------------------------
 #p ROCCSD(T)/cc-pVTZ Guess=Read SCF=(VeryTight,CDIIS,VShift=10)
 ---------------------------------------------------------------

 --------
 O2_O2_40
 --------
 Symbolic Z-matrix:
 Charge = -2 Multiplicity = 1

                         Standard orientation:
 ---------------------------------------------------------------------
 Center     Atomic      Atomic             Coordinates (Angstroms)
 Number     Number       Type             X           Y           Z
 ---------------------------------------------------------------------
      1          8           0        0.000000    0.000000    1.075747
      2          8           0        0.000000    0.000000    2.428127
      3          8           0        0.000000    0.000000   -2.428127
      4          8           0        0.000000    0.000000   -1.075747
 ---------------------------------------------------------------------

 SCF Done:  E(ROHF) =  -298.908877323     A.U. after    9 cycles
 E2 =    -0.1130978113D+01 EUMP2 =    -0.30003985543531D+03
 CCSD(T)
 CCSD(T)= -0.30005947041D+03

 Unable to determine electronic state:  an orbital has unidentified symmetry.
 Alpha  occ. eigenvalues --  -20.17096 -20.17094 -20.11900 -20.11900  -0.98261
 Alpha  occ. eigenvalues --   -0.97267  -0.61799  -0.57311  -0.16953  -0.16679
 Alpha  occ. eigenvalues --   -0.15501  -0.10760  -0.08626  -0.08217   0.04567
 Alpha  occ. eigenvalues --    0.06798   0.19459
 Alpha virt. eigenvalues --    0.40952   0.78776   0.86089   1.16529   1.17070
 Alpha virt. eigenvalues --    1.17910   1.18782   1.21541   1.22390   1.25055
 Alpha virt. eigenvalues --    1.26473   1.37135   1.39048   1.40430   1.40982

 Mulliken charges and spin densities:
               1          2
     1  O   -0.315190   0.000000
     2  O   -0.684810   0.000000
     3  O   -0.684810   0.000000
     4  O   -0.315190   0.000000
 Sum of Mulliken charges =  -2.00000   0.00000

 Dipole moment (field-independent basis, Debye):
    X=             -0.0000    Y=             -0.0000    Z=              0.0000  Tot=              0.0000
 Quadrupole moment (field-independent basis, Debye-Ang):
   XX=            -24.4803   YY=            -25.6973   ZZ=            -68.6475
   XY=              0.0000   XZ=              0.0000   YZ=              0.0000

 CCSD(T)/cc-pVTZ Guess=Read SCF=(VeryTight,CDIIS,VShift=10)\\O2_O2_40\\
 73\CCSD=-299.9672782\CCSD(T)=-300.0594704\RMSD=6.453e-09\PG=D*H [C*(O1
 Normal termination of Gaussian 16 at Sat Jan 14 18:08:08 2023.
