 Gaussian 16, Revision A.03,
 Gaussian 16:  ES64L-G16RevA.03 25-Dec-2016

 ---------------------------------------------------------------
 #p ROCCSD(T)/cc-pVTZ Guess=Read SCF=(VeryTight,CDIIS,VShift=10)
 ---------------------------------------------------------------

 ---------
 O2_O2_172
 ---------
 Symbolic Z-matrix:
 Charge = -2 Multiplicity = 1

                         Standard orientation:
 ---------------------------------------------------------------------
 Center     Atomic      Atomic             Coordinates (Angstroms)
 Number     Number       Type             X           Y           Z
 ---------------------------------------------------------------------
      1          8           0        0.000000    0.000000    2.010214
      2          8           0        0.000000    0.000000    3.362594
      3          8           0        0.000000    0.000000   -3.362594
      4          8           0        0.000000    0.000000   -2.010214
 ---------------------------------------------------------------------

 SCF Done:  E(ROHF) =  -298.907887125     A.U. after    8 cycles
 E2 =    -0.1299586646D+01 EUMP2 =    -0.30020747377149D+03
 CCSD(T)
 CCSD(T)= -0.30013871966D+03

 Unable to determine electronic state:  an orbital has unidentified symmetry.
 Alpha  occ. eigenvalues --  -20.19890 -20.19890 -20.18478 -20.18478  -1.02274
 Alpha  occ. eigenvalues --   -1.02259  -0.64271  -0.64162  -0.20716  -0.20697
 Alpha  occ. eigenvalues --   -0.18040  -0.17806  -0.14293  -0.13905   0.00846
 Alpha  occ. eigenvalues --    0.00895   0.19750
 Alpha virt. eigenvalues --    0.30271   0.72422   0.76402   1.10350   1.14851
 Alpha virt. eigenvalues --    1.15602   1.15878   1.16397   1.16599   1.16860
 Alpha virt. eigenvalues --    1.23878   1.24860   1.25376   1.25927   1.26344

 Mulliken charges and spin densities:
               1          2
     1  O   -0.431287   0.000000
     2  O   -0.568713   0.000000
     3  O   -0.568713   0.000000
     4  O   -0.431287   0.000000
 Sum of Mulliken charges =  -2.00000   0.00000

 Dipole moment (field-independent basis, Debye):
    X=             -0.0000    Y=             -0.0000    Z=              0.0000  Tot=              0.0000
 Quadrupole moment (field-independent basis, Debye-Ang):
   XX=            -24.2488   YY=            -25.6686   ZZ=           -105.2942
   XY=              0.0000   XZ=              0.0000   YZ=              0.0000

 CCSD(T)/cc-pVTZ Guess=Read SCF=(VeryTight,CDIIS,VShift=10)\\O2_O2_172\
 212\CCSD=-300.0044352\CCSD(T)=-300.1387197\RMSD=4.027e-09\PG=D*H [C*(O
 Normal termination of Gaussian 16 at Sat Jan 14 20:54:14 2023.
