 Gaussian 16, Revision A.03,
 Gaussian 16:  ES64L-G16RevA.03 25-Dec-2016

 ---------------------------------------------------------------
 #p ROCCSD(T)/cc-pVTZ Guess=Read SCF=(VeryTight,CDIIS,VShift=10)
 ---------------------------------------------------------------

 ---------
 O2_O2_155
 ---------
 Symbolic Z-matrix:
 Charge = -2 Multiplicity = 1

                         Standard orientation:
 ---------------------------------------------------------------------
 Center     Atomic      Atomic             Coordinates (Angstroms)
 Number     Number       Type             X           Y           Z
 ---------------------------------------------------------------------
      1          8           0        0.000000    0.000000    1.889866
      2          8           0        0.000000    0.000000    3.242246
      3          8           0        0.000000    0.000000   -3.242246
      4          8           0        0.000000    0.000000   -1.889866
 ---------------------------------------------------------------------

 SCF Done:  E(ROHF) =  -298.906556508     A.U. after    8 cycles
 E2 =    -0.1280589288D+01 EUMP2 =    -0.30018714579561D+03
 CCSD(T)
 CCSD(T)= -0.30013245900D+03

 Unable to determine electronic state:  an orbital has unidentified symmetry.
 Alpha  occ. eigenvalues --  -20.19536 -20.19536 -20.17942 -20.17942  -1.01833
 Alpha  occ. eigenvalues --   -1.01811  -0.63833  -0.63673  -0.20279  -0.20245
 Alpha  occ. eigenvalues --   -0.17636  -0.17255  -0.13883  -0.13422   0.01280
 Alpha  occ. eigenvalues --    0.01367   0.19906
 Alpha virt. eigenvalues --    0.31058   0.72185   0.77516   1.09216   1.15225
 Alpha virt. eigenvalues --    1.15913   1.16406   1.16442   1.16920   1.17382
 Alpha virt. eigenvalues --    1.23976   1.25481   1.25739   1.27223   1.30815

 Mulliken charges and spin densities:
               1          2
     1  O   -0.424514  -0.000000
     2  O   -0.575486  -0.000000
     3  O   -0.575486  -0.000000
     4  O   -0.424514  -0.000000
 Sum of Mulliken charges =  -2.00000  -0.00000

 Dipole moment (field-independent basis, Debye):
    X=             -0.0000    Y=             -0.0000    Z=             -0.0000  Tot=              0.0000
 Quadrupole moment (field-independent basis, Debye-Ang):
   XX=            -24.2591   YY=            -25.6715   ZZ=            -99.4688
   XY=              0.0000   XZ=              0.0000   YZ=              0.0000

 CCSD(T)/cc-pVTZ Guess=Read SCF=(VeryTight,CDIIS,VShift=10)\\O2_O2_155\
 4872\CCSD=-300.0006565\CCSD(T)=-300.132459\RMSD=6.972e-09\PG=D*H [C*(O
 Normal termination of Gaussian 16 at Sat Jan 14 20:31:47 2023.
