 Gaussian 16, Revision A.03,
 Gaussian 16:  ES64L-G16RevA.03 25-Dec-2016

 -------------------------------------
 #p CCSD(T)/cc-pVTZ Guess=Read SCF=XQC
 -------------------------------------

 ---------
 O2_O2_242
 ---------
 Symbolic Z-matrix:
 Charge = -2 Multiplicity = 1

                         Standard orientation:
 ---------------------------------------------------------------------
 Center     Atomic      Atomic             Coordinates (Angstroms)
 Number     Number       Type             X           Y           Z
 ---------------------------------------------------------------------
      1          8           0        0.000000    0.000000    2.505764
      2          8           0        0.000000    0.000000    3.858144
      3          8           0        0.000000    0.000000   -3.858144
      4          8           0        0.000000    0.000000   -2.505764
 ---------------------------------------------------------------------

 SCF Done:  E(RHF) =  -298.914122286     A.U. after    8 cycles
 E2 =    -0.1373384055D+01 EUMP2 =    -0.30028750634077D+03
 CCSD(T)
 CCSD(T)= -0.30015936523D+03

 Unable to determine electronic state:  an orbital has unidentified symmetry.
 Alpha  occ. eigenvalues --  -20.21209 -20.21209 -20.20253 -20.20253  -1.03801
 Alpha  occ. eigenvalues --   -1.03797  -0.65814  -0.65778  -0.22237  -0.22236
 Alpha  occ. eigenvalues --   -0.19548  -0.19525  -0.15735  -0.15516  -0.00686
 Alpha  occ. eigenvalues --   -0.00683   0.19104
 Alpha virt. eigenvalues --    0.27752   0.72606   0.73113   1.12111   1.12697
 Alpha virt. eigenvalues --    1.14249   1.14263   1.15240   1.15255   1.16728
 Alpha virt. eigenvalues --    1.17544   1.22759   1.22808   1.24241   1.24290

 Mulliken charges:
               1
     1  O   -0.451163
     2  O   -0.548837
     3  O   -0.548837
     4  O   -0.451163
 Sum of Mulliken charges =  -2.00000

 Dipole moment (field-independent basis, Debye):
    X=             -0.0000    Y=             -0.0000    Z=             -0.0000  Tot=              0.0000
 Quadrupole moment (field-independent basis, Debye-Ang):
   XX=            -24.2318   YY=            -25.6606   ZZ=           -132.3875
   XY=              0.0000   XZ=              0.0000   YZ=              0.0000

 Normal termination of Gaussian 16 at Wed Jan  4 21:30:15 2023.
