 Gaussian 16, Revision A.03,
 Gaussian 16:  ES64L-G16RevA.03 25-Dec-2016

 ---------------------------------------------------------------
 #p ROCCSD(T)/cc-pVTZ Guess=Read SCF=(VeryTight,CDIIS,VShift=10)
 ---------------------------------------------------------------

 ---------
 O2_O2_134
 ---------
 Symbolic Z-matrix:
 Charge = -2 Multiplicity = 1

                         Standard orientation:
 ---------------------------------------------------------------------
 Center     Atomic      Atomic             Coordinates (Angstroms)
 Number     Number       Type             X           Y           Z
 ---------------------------------------------------------------------
      1          8           0        0.000000    0.000000    1.741201
      2          8           0        0.000000    0.000000    3.093581
      3          8           0        0.000000    0.000000   -3.093581
      4          8           0        0.000000    0.000000   -1.741201
 ---------------------------------------------------------------------

 SCF Done:  E(ROHF) =  -298.905299303     A.U. after    9 cycles
 E2 =    -0.1256159006D+01 EUMP2 =    -0.30016145830933D+03
 CCSD(T)
 CCSD(T)= -0.30012378986D+03

 Unable to determine electronic state:  an orbital has unidentified symmetry.
 Alpha  occ. eigenvalues --  -20.19092 -20.19091 -20.17202 -20.17202  -1.01248
 Alpha  occ. eigenvalues --   -1.01207  -0.63262  -0.62992  -0.19704  -0.19635
 Alpha  occ. eigenvalues --   -0.17138  -0.16461  -0.13344  -0.12761   0.01848
 Alpha  occ. eigenvalues --    0.02018   0.20078
 Alpha virt. eigenvalues --    0.32170   0.72250   0.78937   1.08547   1.15555
 Alpha virt. eigenvalues --    1.16216   1.16705   1.17157   1.17253   1.18124
 Alpha virt. eigenvalues --    1.23908   1.25422   1.27241   1.28726   1.36711

 Mulliken charges and spin densities:
               1          2
     1  O   -0.414441   0.000000
     2  O   -0.585559   0.000000
     3  O   -0.585559   0.000000
     4  O   -0.414441   0.000000
 Sum of Mulliken charges =  -2.00000   0.00000

 Dipole moment (field-independent basis, Debye):
    X=             -0.0000    Y=              0.0000    Z=             -0.0000  Tot=              0.0000
 Quadrupole moment (field-independent basis, Debye-Ang):
   XX=            -24.2783   YY=            -25.6759   ZZ=            -92.6932
   XY=              0.0000   XZ=              0.0000   YZ=              0.0000

 CCSD(T)/cc-pVTZ Guess=Read SCF=(VeryTight,CDIIS,VShift=10)\\O2_O2_134\
 733\CCSD=-299.9957812\CCSD(T)=-300.1237899\RMSD=1.436e-09\PG=D*H [C*(O
 Normal termination of Gaussian 16 at Sat Jan 14 20:05:06 2023.
