 Gaussian 16, Revision A.03,
 Gaussian 16:  ES64L-G16RevA.03 25-Dec-2016

 ---------------------------------------------------------------
 #p ROCCSD(T)/cc-pVTZ Guess=Read SCF=(VeryTight,CDIIS,VShift=10)
 ---------------------------------------------------------------

 ---------
 O2_O2_161
 ---------
 Symbolic Z-matrix:
 Charge = -2 Multiplicity = 1

                         Standard orientation:
 ---------------------------------------------------------------------
 Center     Atomic      Atomic             Coordinates (Angstroms)
 Number     Number       Type             X           Y           Z
 ---------------------------------------------------------------------
      1          8           0        0.000000    0.000000    1.932342
      2          8           0        0.000000    0.000000    3.284722
      3          8           0        0.000000    0.000000   -3.284722
      4          8           0        0.000000    0.000000   -1.932342
 ---------------------------------------------------------------------

 SCF Done:  E(ROHF) =  -298.907002437     A.U. after    8 cycles
 E2 =    -0.1287364365D+01 EUMP2 =    -0.30019436680182D+03
 CCSD(T)
 CCSD(T)= -0.30013473888D+03

 Unable to determine electronic state:  an orbital has unidentified symmetry.
 Alpha  occ. eigenvalues --  -20.19662 -20.19661 -20.18137 -20.18137  -1.01992
 Alpha  occ. eigenvalues --   -1.01973  -0.63990  -0.63851  -0.20436  -0.20409
 Alpha  occ. eigenvalues --   -0.17779  -0.17458  -0.14031  -0.13597   0.01124
 Alpha  occ. eigenvalues --    0.01196   0.19852
 Alpha virt. eigenvalues --    0.30770   0.72255   0.77116   1.09597   1.15104
 Alpha virt. eigenvalues --    1.15807   1.16212   1.16407   1.16810   1.17190
 Alpha virt. eigenvalues --    1.23956   1.25400   1.25458   1.26884   1.28927

 Mulliken charges and spin densities:
               1          2
     1  O   -0.427027   0.000000
     2  O   -0.572973   0.000000
     3  O   -0.572973   0.000000
     4  O   -0.427027   0.000000
 Sum of Mulliken charges =  -2.00000   0.00000

 Dipole moment (field-independent basis, Debye):
    X=             -0.0000    Y=              0.0000    Z=             -0.0000  Tot=              0.0000
 Quadrupole moment (field-independent basis, Debye-Ang):
   XX=            -24.2550   YY=            -25.6704   ZZ=           -101.4904
   XY=              0.0000   XZ=              0.0000   YZ=              0.0000

 CCSD(T)/cc-pVTZ Guess=Read SCF=(VeryTight,CDIIS,VShift=10)\\O2_O2_161\
 3998\CCSD=-300.0020087\CCSD(T)=-300.1347389\RMSD=5.696e-09\PG=D*H [C*(
 Normal termination of Gaussian 16 at Sat Jan 14 20:39:49 2023.
