 Gaussian 16, Revision A.03,
 Gaussian 16:  ES64L-G16RevA.03 25-Dec-2016

 ---------------------------------------------------------------
 #p ROCCSD(T)/cc-pVTZ Guess=Read SCF=(VeryTight,CDIIS,VShift=10)
 ---------------------------------------------------------------

 ---------
 O2_O2_195
 ---------
 Symbolic Z-matrix:
 Charge = -2 Multiplicity = 1

                         Standard orientation:
 ---------------------------------------------------------------------
 Center     Atomic      Atomic             Coordinates (Angstroms)
 Number     Number       Type             X           Y           Z
 ---------------------------------------------------------------------
      1          8           0        0.000000    0.000000    2.173037
      2          8           0        0.000000    0.000000    3.525417
      3          8           0        0.000000    0.000000   -3.525417
      4          8           0        0.000000    0.000000   -2.173037
 ---------------------------------------------------------------------

 SCF Done:  E(ROHF) =  -298.909908537     A.U. after    8 cycles
 E2 =    -0.1324457658D+01 EUMP2 =    -0.30023436619465D+03
 CCSD(T)
 CCSD(T)= -0.30014631249D+03

 Unable to determine electronic state:  an orbital has unidentified symmetry.
 Alpha  occ. eigenvalues --  -20.20353 -20.20353 -20.19131 -20.19131  -1.02825
 Alpha  occ. eigenvalues --   -1.02816  -0.64826  -0.64756  -0.21263  -0.21256
 Alpha  occ. eigenvalues --   -0.18569  -0.18454  -0.14810  -0.14495   0.00296
 Alpha  occ. eigenvalues --    0.00317   0.19532
 Alpha virt. eigenvalues --    0.29334   0.72720   0.75049   1.11615   1.14202
 Alpha virt. eigenvalues --    1.15148   1.15264   1.16140   1.16251   1.16567
 Alpha virt. eigenvalues --    1.21475   1.23584   1.23990   1.25073   1.25473

 Mulliken charges and spin densities:
               1          2
     1  O   -0.438996   0.000000
     2  O   -0.561004   0.000000
     3  O   -0.561004   0.000000
     4  O   -0.438996   0.000000
 Sum of Mulliken charges =  -2.00000   0.00000

 Dipole moment (field-independent basis, Debye):
    X=             -0.0000    Y=              0.0000    Z=              0.0000  Tot=              0.0000
 Quadrupole moment (field-independent basis, Debye-Ang):
   XX=            -24.2400   YY=            -25.6653   ZZ=           -113.6491
   XY=              0.0000   XZ=              0.0000   YZ=              0.0000

 CCSD(T)/cc-pVTZ Guess=Read SCF=(VeryTight,CDIIS,VShift=10)\\O2_O2_195\
 4558\CCSD=-300.0092709\CCSD(T)=-300.1463125\RMSD=3.434e-09\PG=D*H [C*(
 Normal termination of Gaussian 16 at Sat Jan 14 21:26:24 2023.
