 Gaussian 16, Revision A.03,
 Gaussian 16:  ES64L-G16RevA.03 25-Dec-2016

 -------------------------------------
 #p CCSD(T)/cc-pVTZ Guess=Read SCF=XQC
 -------------------------------------

 ---------
 O2_O2_152
 ---------
 Symbolic Z-matrix:
 Charge = -2 Multiplicity = 1

                         Standard orientation:
 ---------------------------------------------------------------------
 Center     Atomic      Atomic             Coordinates (Angstroms)
 Number     Number       Type             X           Y           Z
 ---------------------------------------------------------------------
      1          8           0        0.000000    0.000000    1.868627
      2          8           0        0.000000    0.000000    3.221008
      3          8           0        0.000000    0.000000   -3.221008
      4          8           0        0.000000    0.000000   -1.868627
 ---------------------------------------------------------------------

 SCF Done:  E(RHF) =  -298.906345517     A.U. after    8 cycles
 E2 =    -0.1277170258D+01 EUMP2 =    -0.30018351577536D+03
 CCSD(T)
 CCSD(T)= -0.30013128816D+03

 Unable to determine electronic state:  an orbital has unidentified symmetry.
 Alpha  occ. eigenvalues --  -20.19473 -20.19472 -20.17842 -20.17842  -1.01752
 Alpha  occ. eigenvalues --   -1.01728  -0.63753  -0.63581  -0.20200  -0.20162
 Alpha  occ. eigenvalues --   -0.17564  -0.17150  -0.13809  -0.13332   0.01359
 Alpha  occ. eigenvalues --    0.01455   0.19932
 Alpha virt. eigenvalues --    0.31206   0.72160   0.77718   1.09046   1.15281
 Alpha virt. eigenvalues --    1.15963   1.16466   1.16506   1.16973   1.17482
 Alpha virt. eigenvalues --    1.23979   1.25486   1.25922   1.27406   1.31821

 Mulliken charges:
               1
     1  O   -0.423202
     2  O   -0.576798
     3  O   -0.576798
     4  O   -0.423202
 Sum of Mulliken charges =  -2.00000

 Dipole moment (field-independent basis, Debye):
    X=             -0.0000    Y=             -0.0000    Z=             -0.0000  Tot=              0.0000
 Quadrupole moment (field-independent basis, Debye-Ang):
   XX=            -24.2613   YY=            -25.6721   ZZ=            -98.4722
   XY=              0.0000   XZ=              0.0000   YZ=              0.0000

 Normal termination of Gaussian 16 at Wed Jan  4 20:37:50 2023.
