 Gaussian 16, Revision A.03,
 Gaussian 16:  ES64L-G16RevA.03 25-Dec-2016

 ---------------------------------------------------------------
 #p ROCCSD(T)/cc-pVTZ Guess=Read SCF=(VeryTight,CDIIS,VShift=10)
 ---------------------------------------------------------------

 ---------
 O2_O2_160
 ---------
 Symbolic Z-matrix:
 Charge = -2 Multiplicity = 1

                         Standard orientation:
 ---------------------------------------------------------------------
 Center     Atomic      Atomic             Coordinates (Angstroms)
 Number     Number       Type             X           Y           Z
 ---------------------------------------------------------------------
      1          8           0        0.000000    0.000000    1.925262
      2          8           0        0.000000    0.000000    3.277642
      3          8           0        0.000000    0.000000   -3.277642
      4          8           0        0.000000    0.000000   -1.925262
 ---------------------------------------------------------------------

 SCF Done:  E(ROHF) =  -298.906926075     A.U. after    8 cycles
 E2 =    -0.1286240776D+01 EUMP2 =    -0.30019316685076D+03
 CCSD(T)
 CCSD(T)= -0.30013436444D+03

 Unable to determine electronic state:  an orbital has unidentified symmetry.
 Alpha  occ. eigenvalues --  -20.19641 -20.19641 -20.18105 -20.18105  -1.01966
 Alpha  occ. eigenvalues --   -1.01946  -0.63964  -0.63822  -0.20410  -0.20382
 Alpha  occ. eigenvalues --   -0.17755  -0.17425  -0.14007  -0.13569   0.01150
 Alpha  occ. eigenvalues --    0.01224   0.19861
 Alpha virt. eigenvalues --    0.30817   0.72242   0.77182   1.09530   1.15125
 Alpha virt. eigenvalues --    1.15825   1.16243   1.16412   1.16829   1.17222
 Alpha virt. eigenvalues --    1.23961   1.25454   1.25463   1.26938   1.29229

 Mulliken charges and spin densities:
               1          2
     1  O   -0.426618   0.000000
     2  O   -0.573382   0.000000
     3  O   -0.573382   0.000000
     4  O   -0.426618   0.000000
 Sum of Mulliken charges =  -2.00000   0.00000

 Dipole moment (field-independent basis, Debye):
    X=             -0.0000    Y=             -0.0000    Z=              0.0000  Tot=              0.0000
 Quadrupole moment (field-independent basis, Debye-Ang):
   XX=            -24.2556   YY=            -25.6706   ZZ=           -101.1509
   XY=              0.0000   XZ=              0.0000   YZ=              0.0000

 CCSD(T)/cc-pVTZ Guess=Read SCF=(VeryTight,CDIIS,VShift=10)\\O2_O2_160\
 1528\CCSD=-300.0017847\CCSD(T)=-300.1343644\RMSD=5.909e-09\PG=D*H [C*(
 Normal termination of Gaussian 16 at Sat Jan 14 20:38:27 2023.
