 Gaussian 16, Revision A.03,
 Gaussian 16:  ES64L-G16RevA.03 25-Dec-2016

 ---------------------------------------------------------------
 #p ROCCSD(T)/cc-pVTZ Guess=Read SCF=(VeryTight,CDIIS,VShift=10)
 ---------------------------------------------------------------

 --------
 O2_O2_70
 --------
 Symbolic Z-matrix:
 Charge = -2 Multiplicity = 1

                         Standard orientation:
 ---------------------------------------------------------------------
 Center     Atomic      Atomic             Coordinates (Angstroms)
 Number     Number       Type             X           Y           Z
 ---------------------------------------------------------------------
      1          8           0        0.000000    0.000000    1.288126
      2          8           0        0.000000    0.000000    2.640506
      3          8           0        0.000000    0.000000   -2.640506
      4          8           0        0.000000    0.000000   -1.288126
 ---------------------------------------------------------------------

 SCF Done:  E(ROHF) =  -298.907394835     A.U. after    9 cycles
 E2 =    -0.1172978530D+01 EUMP2 =    -0.30008037336458D+03
 CCSD(T)
 CCSD(T)= -0.30008776647D+03

 Unable to determine electronic state:  an orbital has unidentified symmetry.
 Alpha  occ. eigenvalues --  -20.17770 -20.17769 -20.14127 -20.14127  -0.99200
 Alpha  occ. eigenvalues --   -0.98874  -0.61666  -0.59936  -0.17757  -0.17211
 Alpha  occ. eigenvalues --   -0.16148  -0.12496  -0.11529  -0.10077   0.03720
 Alpha  occ. eigenvalues --    0.04749   0.20130
 Alpha virt. eigenvalues --    0.37138   0.76503   0.83381   1.15904   1.16177
 Alpha virt. eigenvalues --    1.17305   1.17619   1.19978   1.20888   1.22497
 Alpha virt. eigenvalues --    1.23727   1.25145   1.35650   1.37132   1.38554

 Mulliken charges and spin densities:
               1          2
     1  O   -0.362470   0.000000
     2  O   -0.637530   0.000000
     3  O   -0.637530   0.000000
     4  O   -0.362470   0.000000
 Sum of Mulliken charges =  -2.00000   0.00000

 Dipole moment (field-independent basis, Debye):
    X=             -0.0000    Y=              0.0000    Z=              0.0000  Tot=              0.0000
 Quadrupole moment (field-independent basis, Debye-Ang):
   XX=            -24.4026   YY=            -25.6951   ZZ=            -75.0474
   XY=              0.0000   XZ=              0.0000   YZ=              0.0000

 CCSD(T)/cc-pVTZ Guess=Read SCF=(VeryTight,CDIIS,VShift=10)\\O2_O2_70\\
 468\CCSD=-299.9797906\CCSD(T)=-300.0877665\RMSD=3.692e-09\PG=D*H [C*(O
 Normal termination of Gaussian 16 at Sat Jan 14 18:44:06 2023.
