 Gaussian 16, Revision A.03,
 Gaussian 16:  ES64L-G16RevA.03 25-Dec-2016

 ---------------------------------------------------------------
 #p ROCCSD(T)/cc-pVTZ Guess=Read SCF=(VeryTight,CDIIS,VShift=10)
 ---------------------------------------------------------------

 --------
 O2_O2_21
 --------
 Symbolic Z-matrix:
 Charge = -2 Multiplicity = 1

                         Standard orientation:
 ---------------------------------------------------------------------
 Center     Atomic      Atomic             Coordinates (Angstroms)
 Number     Number       Type             X           Y           Z
 ---------------------------------------------------------------------
      1          8           0        0.000000    0.000000    0.941240
      2          8           0        0.000000    0.000000    2.293621
      3          8           0        0.000000    0.000000   -2.293621
      4          8           0        0.000000    0.000000   -0.941240
 ---------------------------------------------------------------------

 SCF Done:  E(ROHF) =  -298.898490537     A.U. after   10 cycles
 E2 =    -0.1106801331D+01 EUMP2 =    -0.30000529186856D+03
 CCSD(T)
 CCSD(T)= -0.30002749878D+03

 Unable to determine electronic state:  an orbital has unidentified symmetry.
 Alpha  occ. eigenvalues --  -20.16558 -20.16554 -20.09954 -20.09954  -0.98012
 Alpha  occ. eigenvalues --   -0.95876  -0.63090  -0.54752  -0.17749  -0.16822
 Alpha  occ. eigenvalues --   -0.14015  -0.10559  -0.06667  -0.04383   0.05018
 Alpha  occ. eigenvalues --    0.08621   0.18490
 Alpha virt. eigenvalues --    0.44239   0.79976   0.88493   1.17300   1.17962
 Alpha virt. eigenvalues --    1.18502   1.20263   1.22715   1.23509   1.26751
 Alpha virt. eigenvalues --    1.28275   1.39118   1.39548   1.43035   1.44552

 Mulliken charges and spin densities:
               1          2
     1  O   -0.271302  -0.000000
     2  O   -0.728698  -0.000000
     3  O   -0.728698   0.000000
     4  O   -0.271302  -0.000000
 Sum of Mulliken charges =  -2.00000  -0.00000

 Dipole moment (field-independent basis, Debye):
    X=             -0.0000    Y=              0.0000    Z=             -0.0000  Tot=              0.0000
 Quadrupole moment (field-independent basis, Debye-Ang):
   XX=            -24.4937   YY=            -25.6694   ZZ=            -65.5526
   XY=              0.0000   XZ=              0.0000   YZ=              0.0000

 CCSD(T)/cc-pVTZ Guess=Read SCF=(VeryTight,CDIIS,VShift=10)\\O2_O2_21\\
 22\CCSD=-299.946793\CCSD(T)=-300.0274988\RMSD=1.021e-09\PG=D*H [C*(O1O
 Normal termination of Gaussian 16 at Sat Jan 14 17:44:26 2023.
