 Gaussian 16, Revision A.03,
 Gaussian 16:  ES64L-G16RevA.03 25-Dec-2016

 -------------------------------------
 #p CCSD(T)/cc-pVTZ Guess=Read SCF=XQC
 -------------------------------------

 ---------
 O2_O2_293
 ---------
 Symbolic Z-matrix:
 Charge = -2 Multiplicity = 1

                         Standard orientation:
 ---------------------------------------------------------------------
 Center     Atomic      Atomic             Coordinates (Angstroms)
 Number     Number       Type             X           Y           Z
 ---------------------------------------------------------------------
      1          8           0        0.000000    0.000000    2.866808
      2          8           0        0.000000    0.000000    4.219188
      3          8           0        0.000000    0.000000   -4.219188
      4          8           0        0.000000    0.000000   -2.866808
 ---------------------------------------------------------------------

 SCF Done:  E(RHF) =  -298.918169381     A.U. after    8 cycles
 E2 =    -0.1425063201D+01 EUMP2 =    -0.30034323258265D+03
 CCSD(T)
 CCSD(T)= -0.30017071050D+03

 Unable to determine electronic state:  an orbital has unidentified symmetry.
 Alpha  occ. eigenvalues --  -20.21986 -20.21986 -20.21223 -20.21223  -1.04664
 Alpha  occ. eigenvalues --   -1.04661  -0.66689  -0.66666  -0.23099  -0.23099
 Alpha  occ. eigenvalues --   -0.20434  -0.20429  -0.16562  -0.16407  -0.01558
 Alpha  occ. eigenvalues --   -0.01557   0.18702
 Alpha virt. eigenvalues --    0.26398   0.71894   0.71949   1.11499   1.11568
 Alpha virt. eigenvalues --    1.13413   1.13414   1.14407   1.14409   1.16048
 Alpha virt. eigenvalues --    1.16119   1.21904   1.21908   1.23385   1.23388

 Mulliken charges:
               1
     1  O   -0.460690
     2  O   -0.539310
     3  O   -0.539310
     4  O   -0.460690
 Sum of Mulliken charges =  -2.00000

 Dipole moment (field-independent basis, Debye):
    X=             -0.0000    Y=              0.0000    Z=              0.0000  Tot=              0.0000
 Quadrupole moment (field-independent basis, Debye-Ang):
   XX=            -24.2280   YY=            -25.6575   ZZ=           -155.2326
   XY=              0.0000   XZ=              0.0000   YZ=              0.0000

 Normal termination of Gaussian 16 at Wed Jan  4 22:00:40 2023.
