 Gaussian 16, Revision A.03,
 Gaussian 16:  ES64L-G16RevA.03 25-Dec-2016

 -------------------------------------
 #p CCSD(T)/cc-pVTZ Guess=Read SCF=XQC
 -------------------------------------

 ---------
 O2_O2_190
 ---------
 Symbolic Z-matrix:
 Charge = -2 Multiplicity = 1

                         Standard orientation:
 ---------------------------------------------------------------------
 Center     Atomic      Atomic             Coordinates (Angstroms)
 Number     Number       Type             X           Y           Z
 ---------------------------------------------------------------------
      1          8           0        0.000000    0.000000    2.137641
      2          8           0        0.000000    0.000000    3.490021
      3          8           0        0.000000    0.000000   -3.490021
      4          8           0        0.000000    0.000000   -2.137641
 ---------------------------------------------------------------------

 SCF Done:  E(RHF) =  -298.909457198     A.U. after    8 cycles
 E2 =    -0.1319118766D+01 EUMP2 =    -0.30022857596394D+03
 CCSD(T)
 CCSD(T)= -0.30014473858D+03

 Unable to determine electronic state:  an orbital has unidentified symmetry.
 Alpha  occ. eigenvalues --  -20.20254 -20.20254 -20.18996 -20.18996  -1.02710
 Alpha  occ. eigenvalues --   -1.02700  -0.64709  -0.64633  -0.21148  -0.21139
 Alpha  occ. eigenvalues --   -0.18456  -0.18321  -0.14702  -0.14372   0.00412
 Alpha  occ. eigenvalues --    0.00437   0.19580
 Alpha virt. eigenvalues --    0.29527   0.72673   0.75322   1.11404   1.14356
 Alpha virt. eigenvalues --    1.15248   1.15388   1.16241   1.16375   1.16515
 Alpha virt. eigenvalues --    1.22253   1.23659   1.24155   1.25150   1.25639

 Mulliken charges:
               1
     1  O   -0.437439
     2  O   -0.562561
     3  O   -0.562561
     4  O   -0.437439
 Sum of Mulliken charges =  -2.00000

 Dipole moment (field-independent basis, Debye):
    X=             -0.0000    Y=             -0.0000    Z=              0.0000  Tot=              0.0000
 Quadrupole moment (field-independent basis, Debye-Ang):
   XX=            -24.2416   YY=            -25.6660   ZZ=           -111.7870
   XY=              0.0000   XZ=              0.0000   YZ=              0.0000

 Normal termination of Gaussian 16 at Wed Jan  4 20:59:54 2023.
