 Gaussian 16, Revision A.03,
 Gaussian 16:  ES64L-G16RevA.03 25-Dec-2016

 ---------------------------------------------------------------
 #p ROCCSD(T)/cc-pVTZ Guess=Read SCF=(VeryTight,CDIIS,VShift=10)
 ---------------------------------------------------------------

 --------
 O2_O2_63
 --------
 Symbolic Z-matrix:
 Charge = -2 Multiplicity = 1

                         Standard orientation:
 ---------------------------------------------------------------------
 Center     Atomic      Atomic             Coordinates (Angstroms)
 Number     Number       Type             X           Y           Z
 ---------------------------------------------------------------------
      1          8           0        0.000000    0.000000    1.238571
      2          8           0        0.000000    0.000000    2.590951
      3          8           0        0.000000    0.000000   -2.590951
      4          8           0        0.000000    0.000000   -1.238571
 ---------------------------------------------------------------------

 SCF Done:  E(ROHF) =  -298.908196152     A.U. after    9 cycles
 E2 =    -0.1163156604D+01 EUMP2 =    -0.30007135275632D+03
 CCSD(T)
 CCSD(T)= -0.30008235302D+03

 Unable to determine electronic state:  an orbital has unidentified symmetry.
 Alpha  occ. eigenvalues --  -20.17625 -20.17623 -20.13673 -20.13673  -0.98964
 Alpha  occ. eigenvalues --   -0.98545  -0.61587  -0.59433  -0.17546  -0.16862
 Alpha  occ. eigenvalues --   -0.16174  -0.11787  -0.11331  -0.09691   0.03926
 Alpha  occ. eigenvalues --    0.05161   0.20040
 Alpha virt. eigenvalues --    0.37909   0.77074   0.83943   1.15996   1.16234
 Alpha virt. eigenvalues --    1.17584   1.17746   1.20323   1.21222   1.23917
 Alpha virt. eigenvalues --    1.25322   1.25584   1.36802   1.38284   1.38694

 Mulliken charges and spin densities:
               1          2
     1  O   -0.353438   0.000000
     2  O   -0.646562   0.000000
     3  O   -0.646562   0.000000
     4  O   -0.353438   0.000000
 Sum of Mulliken charges =  -2.00000   0.00000

 Dipole moment (field-independent basis, Debye):
    X=             -0.0000    Y=              0.0000    Z=              0.0000  Tot=              0.0000
 Quadrupole moment (field-independent basis, Debye-Ang):
   XX=            -24.4219   YY=            -25.6973   ZZ=            -73.4225
   XY=              0.0000   XZ=              0.0000   YZ=              0.0000

 CCSD(T)/cc-pVTZ Guess=Read SCF=(VeryTight,CDIIS,VShift=10)\\O2_O2_63\\
 524\CCSD=-299.9776695\CCSD(T)=-300.082353\RMSD=4.102e-09\PG=D*H [C*(O1
 Normal termination of Gaussian 16 at Sat Jan 14 18:35:53 2023.
