 Gaussian 16, Revision A.03,
 Gaussian 16:  ES64L-G16RevA.03 25-Dec-2016

 ----------------------------------------------------
 #p ROCCSD(T)/cc-pVTZ SCF=(VeryTight,CDIIS,VShift=10)
 ----------------------------------------------------

 --
 O2
 --
 Symbolic Z-matrix:
 Charge = -1 Multiplicity = 2

                         Standard orientation:
 ---------------------------------------------------------------------
 Center     Atomic      Atomic             Coordinates (Angstroms)
 Number     Number       Type             X           Y           Z
 ---------------------------------------------------------------------
      1          8           0        0.000000    0.000000    0.676190
      2          8           0        0.000000    0.000000   -0.676190
 ---------------------------------------------------------------------

 SCF Done:  E(ROHF) =  -149.616406270     A.U. after    9 cycles
 E2 =    -0.4890718635D+00 EUMP2 =    -0.15010547813303D+03
 CCSD(T)
 CCSD(T)= -0.15011562508D+03

 Unable to determine electronic state:  partially filled degenerate orbitals.
 Alpha  occ. eigenvalues --  -20.28367 -20.28333  -1.14150  -0.77741  -0.33836
 Alpha  occ. eigenvalues --   -0.30602  -0.28524  -0.13011  -0.09211
 Alpha virt. eigenvalues --    0.63551   1.03815   1.03895   1.06140   1.08078
 Alpha virt. eigenvalues --    1.12326   1.14455   1.26286   1.78512   1.85509
 Alpha virt. eigenvalues --    1.88272   1.88647   1.88667   2.20839   2.20871

 Mulliken charges and spin densities:
               1          2
     1  O   -0.500000   0.500000
     2  O   -0.500000   0.500000
 Sum of Mulliken charges =  -1.00000   1.00000

 Dipole moment (field-independent basis, Debye):
    X=             -0.0000    Y=             -0.0000    Z=             -0.0000  Tot=              0.0000
 Quadrupole moment (field-independent basis, Debye-Ang):
   XX=            -11.8930   YY=            -12.8275   ZZ=            -15.1234
   XY=              0.0000   XZ=              0.0000   YZ=              0.0000

 54781\MP4SDQ=-150.0992227\CCSD=-150.0962025\CCSD(T)=-150.1156251\RMSD=
 Normal termination of Gaussian 16 at Sun Jan 15 01:50:17 2023.
