 Gaussian 16, Revision A.03,
 Gaussian 16:  ES64L-G16RevA.03 25-Dec-2016

 ----------------------------------------------------
 #p ROCCSD(T)/cc-pVTZ SCF=(VeryTight,CDIIS,VShift=10)
 ----------------------------------------------------

 --
 O2
 --
 Symbolic Z-matrix:
 Charge =  0 Multiplicity = 3

                         Standard orientation:
 ---------------------------------------------------------------------
 Center     Atomic      Atomic             Coordinates (Angstroms)
 Number     Number       Type             X           Y           Z
 ---------------------------------------------------------------------
      1          8           0        0.000000    0.000000    0.676190
      2          8           0        0.000000    0.000000   -0.676190
 ---------------------------------------------------------------------

 SCF Done:  E(ROHF) =  -149.601430905     A.U. after    9 cycles
 E2 =    -0.5207777312D+00 EUMP2 =    -0.15012220863612D+03
 CCSD(T)
 CCSD(T)= -0.15010960196D+03

 The electronic state is 3-SGG.
 Alpha  occ. eigenvalues --  -20.77254 -20.77221  -1.60061  -1.23496  -0.77562
 Alpha  occ. eigenvalues --   -0.77562  -0.72000  -0.57626  -0.57626
 Alpha virt. eigenvalues --    0.24886   0.67616   0.69022   0.69022   0.75120
 Alpha virt. eigenvalues --    0.79141   0.79141   0.88530   1.41773   1.46358
 Alpha virt. eigenvalues --    1.46358   1.48198   1.48198   1.80275   1.80275

 Mulliken charges and spin densities:
               1          2
     1  O    0.000000   1.000000
     2  O    0.000000   1.000000
 Sum of Mulliken charges =   0.00000   2.00000

 Dipole moment (field-independent basis, Debye):
    X=              0.0000    Y=              0.0000    Z=             -0.0000  Tot=              0.0000
 Quadrupole moment (field-independent basis, Debye-Ang):
   XX=            -10.1808   YY=            -10.1808   ZZ=            -10.0793
   XY=              0.0000   XZ=              0.0000   YZ=              0.0000

 =-150.1222086\MP4SDQ=-150.0939619\CCSD=-150.0846074\CCSD(T)=-150.10960
 Normal termination of Gaussian 16 at Sun Jan 15 01:52:17 2023.
