 Gaussian 16, Revision A.03,
 Gaussian 16:  ES64L-G16RevA.03 25-Dec-2016

 --------------------------
 #p CCSD(T)/cc-pVTZ SCF=XQC
 --------------------------

 --
 O2
 --
 Symbolic Z-matrix:
 Charge = -1 Multiplicity = 2

                         Standard orientation:
 ---------------------------------------------------------------------
 Center     Atomic      Atomic             Coordinates (Angstroms)
 Number     Number       Type             X           Y           Z
 ---------------------------------------------------------------------
      1          8           0        0.000000    0.000000    0.676190
      2          8           0        0.000000    0.000000   -0.676190
 ---------------------------------------------------------------------

 SCF Done:  E(UHF) =  -149.627756282     A.U. after   11 cycles
 E2 =    -0.4684922159D+00 EUMP2 =    -0.15009624849785D+03
 CCSD(T)
 CCSD(T)= -0.15011562700D+03

 Unable to determine electronic state:  an orbital has unidentified symmetry.
 Alpha  occ. eigenvalues --  -20.28552 -20.28516  -1.14930  -0.78755  -0.36120
 Alpha  occ. eigenvalues --   -0.30853  -0.28325  -0.15535  -0.09642
 Alpha virt. eigenvalues --    0.63311   1.03299   1.03729   1.06029   1.08093
 Alpha virt. eigenvalues --    1.11746   1.14341   1.26664   1.78540   1.85833
 Alpha virt. eigenvalues --    1.88555   1.88823   1.88831   2.20815   2.20843

  Beta  occ. eigenvalues --  -20.25941 -20.25888  -1.07537  -0.68163  -0.28461
  Beta  occ. eigenvalues --   -0.25942  -0.11933  -0.06516
  Beta virt. eigenvalues --    0.44114   0.66203   1.05531   1.06971   1.08963
  Beta virt. eigenvalues --    1.11613   1.15297   1.21265   1.27367   1.80745
  Beta virt. eigenvalues --    1.88560   1.90707   1.91805   1.91816   2.25684

 Mulliken charges and spin densities:
               1          2
     1  O   -0.500000   0.500000
     2  O   -0.500000   0.500000
 Sum of Mulliken charges =  -1.00000   1.00000

 Dipole moment (field-independent basis, Debye):
    X=             -0.0000    Y=              0.0000    Z=              0.0000  Tot=              0.0000
 Quadrupole moment (field-independent basis, Debye-Ang):
   XX=            -12.8378   YY=            -11.8941   ZZ=            -15.1018
   XY=              0.0000   XZ=              0.0000   YZ=              0.0000

 877\CCSD(T)=-150.115627\S2=0.773971\S2-1=0.7551\S2A=0.750211\RMSD=4.97
 Normal termination of Gaussian 16 at Sat Dec 31 19:45:51 2022.
