 Gaussian 16, Revision A.03,
 Gaussian 16:  ES64L-G16RevA.03 25-Dec-2016

 ------------------------------------------------
 #p CCSD(T,MaxCyc=300)/cc-pVTZ Guess=Read SCF=XQC
 ------------------------------------------------

 ---------
 O2_O2_157
 ---------
 Symbolic Z-matrix:
 Charge = -2 Multiplicity = 5

                         Standard orientation:
 ---------------------------------------------------------------------
 Center     Atomic      Atomic             Coordinates (Angstroms)
 Number     Number       Type             X           Y           Z
 ---------------------------------------------------------------------
      1          8           0        0.000000    0.000000    1.904024
      2          8           0        0.000000    0.000000    3.256404
      3          8           0        0.000000    0.000000   -3.256404
      4          8           0        0.000000    0.000000   -1.904024
 ---------------------------------------------------------------------

 SCF Done:  E(UHF) =  -298.776962562     A.U. after   16 cycles
 E2 =    -0.1138000672D+01 EUMP2 =    -0.29991496323365D+03
 CCSD(T)
 CCSD(T)= -0.29991611222D+03

 Unable to determine electronic state:  an orbital has unidentified symmetry.
 Alpha  occ. eigenvalues --  -20.24141 -20.24140 -20.19800 -20.19800  -1.10757
 Alpha  occ. eigenvalues --   -1.10746  -0.74522  -0.74423  -0.29465  -0.29433
 Alpha  occ. eigenvalues --   -0.26759  -0.26728  -0.24454  -0.23522  -0.08735
 Alpha  occ. eigenvalues --   -0.08689  -0.06231  -0.06174   0.42377
 Alpha virt. eigenvalues --    0.57635   1.02775   1.11069   1.11301   1.12004
 Alpha virt. eigenvalues --    1.12688   1.13283   1.13494   1.19793   1.20945
 Alpha virt. eigenvalues --    1.21293   1.22563   1.27899   1.34483   1.34551

  Beta  occ. eigenvalues --  -20.18397 -20.18396 -20.14818 -20.14818  -0.94773
  Beta  occ. eigenvalues --   -0.94755  -0.55682  -0.55509  -0.15661  -0.15299
  Beta  occ. eigenvalues --   -0.09861  -0.09386  -0.02636  -0.02599   0.24677
  Beta virt. eigenvalues --    0.35425   0.54157   0.54421   0.76468   0.81809
  Beta virt. eigenvalues --    1.11525   1.17693   1.18550   1.18880   1.19418
  Beta virt. eigenvalues --    1.20967   1.21295   1.27775   1.29258   1.30686

 Mulliken charges and spin densities:
               1          2
     1  O   -0.375147   1.122097
     2  O   -0.624853   0.877903
     3  O   -0.624853   0.877903
     4  O   -0.375147   1.122097
 Sum of Mulliken charges =  -2.00000   4.00000

 Dipole moment (field-independent basis, Debye):
    X=             -0.0000    Y=              0.0000    Z=             -0.0000  Tot=              0.0000
 Quadrupole moment (field-independent basis, Debye-Ang):
   XX=            -25.1623   YY=            -24.0023   ZZ=           -105.0827
   XY=             -0.0000   XZ=              0.0000   YZ=             -0.0000

 Normal termination of Gaussian 16 at Sat Jan  7 06:34:41 2023.
