 Gaussian 16, Revision A.03,
 Gaussian 16:  ES64L-G16RevA.03 25-Dec-2016

 ------------------------------------------------
 #p CCSD(T,MaxCyc=300)/cc-pVTZ Guess=Read SCF=XQC
 ------------------------------------------------

 --------
 O2_O2_35
 --------
 Symbolic Z-matrix:
 Charge = -2 Multiplicity = 5

                         Standard orientation:
 ---------------------------------------------------------------------
 Center     Atomic      Atomic             Coordinates (Angstroms)
 Number     Number       Type             X           Y           Z
 ---------------------------------------------------------------------
      1          8           0        0.000000    0.000000    1.040351
      2          8           0        0.000000    0.000000    2.392731
      3          8           0        0.000000    0.000000   -2.392731
      4          8           0        0.000000    0.000000   -1.040351
 ---------------------------------------------------------------------

 SCF Done:  E(UHF) =  -298.773902858     A.U. after   13 cycles
 E2 =    -0.1024952822D+01 EUMP2 =    -0.29979885567920D+03
 CCSD(T)
 CCSD(T)= -0.29984435397D+03

 Unable to determine electronic state:  an orbital has unidentified symmetry.
 Alpha  occ. eigenvalues --  -20.16079 -20.16073 -20.13387 -20.13387  -1.05399
 Alpha  occ. eigenvalues --   -1.04502  -0.70769  -0.66695  -0.23479  -0.23169
 Alpha  occ. eigenvalues --   -0.22298  -0.21501  -0.19905  -0.13074  -0.03865
 Alpha  occ. eigenvalues --   -0.01347  -0.00896   0.01146   0.41744
 Alpha virt. eigenvalues --    0.71681   1.10068   1.12739   1.14724   1.15402
 Alpha virt. eigenvalues --    1.17507   1.19647   1.21069   1.23106   1.38423
 Alpha virt. eigenvalues --    1.38454   1.38857   1.39436   1.42026   1.87960

  Beta  occ. eigenvalues --  -20.10319 -20.10316 -20.07831 -20.07831  -0.88240
  Beta  occ. eigenvalues --   -0.86989  -0.52378  -0.46382  -0.12885  -0.05183
  Beta  occ. eigenvalues --   -0.03452  -0.03244   0.02265   0.04974   0.25130
  Beta virt. eigenvalues --    0.51214   0.58352   0.62565   0.85645   0.91784
  Beta virt. eigenvalues --    1.20439   1.20581   1.23494   1.24238   1.24663
  Beta virt. eigenvalues --    1.29074   1.30093   1.34060   1.40313   1.40745

 Mulliken charges and spin densities:
               1          2
     1  O   -0.360726   0.942486
     2  O   -0.639274   1.057514
     3  O   -0.639274   1.057514
     4  O   -0.360726   0.942486
 Sum of Mulliken charges =  -2.00000   4.00000

 Dipole moment (field-independent basis, Debye):
    X=             -0.0000    Y=              0.0000    Z=              0.0000  Tot=              0.0000
 Quadrupole moment (field-independent basis, Debye-Ang):
   XX=            -25.3002   YY=            -24.0001   ZZ=            -68.6347
   XY=             -0.0000   XZ=              0.0000   YZ=             -0.0000

 Normal termination of Gaussian 16 at Sat Jan  7 03:41:26 2023.
