 Gaussian 16, Revision A.03,
 Gaussian 16:  ES64L-G16RevA.03 25-Dec-2016

 ------------------------------------------------
 #p CCSD(T,MaxCyc=300)/cc-pVTZ Guess=Read SCF=XQC
 ------------------------------------------------

 ---------
 O2_O2_191
 ---------
 Symbolic Z-matrix:
 Charge = -2 Multiplicity = 5

                         Standard orientation:
 ---------------------------------------------------------------------
 Center     Atomic      Atomic             Coordinates (Angstroms)
 Number     Number       Type             X           Y           Z
 ---------------------------------------------------------------------
      1          8           0        0.000000    0.000000    2.144720
      2          8           0        0.000000    0.000000    3.497100
      3          8           0        0.000000    0.000000   -3.497100
      4          8           0        0.000000    0.000000   -2.144720
 ---------------------------------------------------------------------

 SCF Done:  E(UHF) =  -298.770651363     A.U. after   16 cycles
 E2 =    -0.1183192978D+01 EUMP2 =    -0.29995384434082D+03
 CCSD(T)
 CCSD(T)= -0.29992830074D+03

 Unable to determine electronic state:  an orbital has unidentified symmetry.
 Alpha  occ. eigenvalues --  -20.24252 -20.24251 -20.20580 -20.20580  -1.11408
 Alpha  occ. eigenvalues --   -1.11405  -0.75276  -0.75234  -0.30016  -0.30006
 Alpha  occ. eigenvalues --   -0.27325  -0.27315  -0.25349  -0.24801  -0.09391
 Alpha  occ. eigenvalues --   -0.09376  -0.06873  -0.06856   0.42780
 Alpha virt. eigenvalues --    0.54637   1.04971   1.09781   1.10837   1.11052
 Alpha virt. eigenvalues --    1.12199   1.12379   1.14056   1.19458   1.19482
 Alpha virt. eigenvalues --    1.19934   1.20666   1.21155   1.33818   1.33830

  Beta  occ. eigenvalues --  -20.18429 -20.18429 -20.15524 -20.15524  -0.95200
  Beta  occ. eigenvalues --   -0.95193  -0.56237  -0.56152  -0.16132  -0.15993
  Beta  occ. eigenvalues --   -0.10387  -0.10049  -0.03198  -0.03186   0.24615
  Beta virt. eigenvalues --    0.34230   0.53537   0.53618   0.76953   0.79824
  Beta virt. eigenvalues --    1.13828   1.17049   1.18311   1.18392   1.18560
  Beta virt. eigenvalues --    1.20446   1.20544   1.23136   1.27488   1.27910

 Mulliken charges and spin densities:
               1          2
     1  O   -0.385800   1.111215
     2  O   -0.614200   0.888785
     3  O   -0.614200   0.888785
     4  O   -0.385800   1.111215
 Sum of Mulliken charges =  -2.00000   4.00000

 Dipole moment (field-independent basis, Debye):
    X=             -0.0000    Y=              0.0000    Z=              0.0000  Tot=              0.0000
 Quadrupole moment (field-independent basis, Debye-Ang):
   XX=            -25.1466   YY=            -23.9841   ZZ=           -118.2080
   XY=             -0.0000   XZ=              0.0000   YZ=             -0.0000

 Normal termination of Gaussian 16 at Sat Jan  7 07:26:35 2023.
