 Gaussian 16, Revision A.03,
 Gaussian 16:  ES64L-G16RevA.03 25-Dec-2016

 ------------------------------------------------
 #p CCSD(T,MaxCyc=300)/cc-pVTZ Guess=Read SCF=XQC
 ------------------------------------------------

 --------
 O2_O2_56
 --------
 Symbolic Z-matrix:
 Charge = -2 Multiplicity = 5

                         Standard orientation:
 ---------------------------------------------------------------------
 Center     Atomic      Atomic             Coordinates (Angstroms)
 Number     Number       Type             X           Y           Z
 ---------------------------------------------------------------------
      1          8           0        0.000000    0.000000    1.189016
      2          8           0        0.000000    0.000000    2.541396
      3          8           0        0.000000    0.000000   -2.541396
      4          8           0        0.000000    0.000000   -1.189016
 ---------------------------------------------------------------------

 SCF Done:  E(UHF) =  -298.779035278     A.U. after   13 cycles
 E2 =    -0.1048217442D+01 EUMP2 =    -0.29982725271999D+03
 CCSD(T)
 CCSD(T)= -0.29986581026D+03

 Unable to determine electronic state:  an orbital has unidentified symmetry.
 Alpha  occ. eigenvalues --  -20.18271 -20.18267 -20.15039 -20.15039  -1.06432
 Alpha  occ. eigenvalues --   -1.06037  -0.70937  -0.68923  -0.24629  -0.23993
 Alpha  occ. eigenvalues --   -0.22569  -0.22511  -0.21710  -0.16271  -0.04816
 Alpha  occ. eigenvalues --   -0.03546  -0.01914  -0.00812   0.41981
 Alpha virt. eigenvalues --    0.67911   1.10307   1.13204   1.13238   1.13971
 Alpha virt. eigenvalues --    1.16534   1.18418   1.19941   1.21845   1.27476
 Alpha virt. eigenvalues --    1.35002   1.35790   1.37856   1.38787   1.80152

  Beta  occ. eigenvalues --  -20.12489 -20.12487 -20.09638 -20.09638  -0.89607
  Beta  occ. eigenvalues --   -0.89041  -0.52090  -0.49024  -0.12726  -0.07335
  Beta  occ. eigenvalues --   -0.06078  -0.04654   0.01856   0.03151   0.25648
  Beta virt. eigenvalues --    0.46842   0.57468   0.60314   0.83666   0.89561
  Beta virt. eigenvalues --    1.19341   1.20148   1.21970   1.22948   1.23611
  Beta virt. eigenvalues --    1.27350   1.28366   1.32227   1.32315   1.39622

 Mulliken charges and spin densities:
               1          2
     1  O   -0.371400   0.992661
     2  O   -0.628600   1.007339
     3  O   -0.628600   1.007339
     4  O   -0.371400   0.992661
 Sum of Mulliken charges =  -2.00000   4.00000

 Dipole moment (field-independent basis, Debye):
    X=             -0.0000    Y=              0.0000    Z=             -0.0000  Tot=              0.0000
 Quadrupole moment (field-independent basis, Debye-Ang):
   XX=            -25.2779   YY=            -24.0273   ZZ=            -73.1702
   XY=             -0.0000   XZ=              0.0000   YZ=             -0.0000

 Normal termination of Gaussian 16 at Sat Jan  7 04:10:36 2023.
