 Gaussian 16, Revision A.03,
 Gaussian 16:  ES64L-G16RevA.03 25-Dec-2016

 ------------------------------------------------
 #p CCSD(T,MaxCyc=300)/cc-pVTZ Guess=Read SCF=XQC
 ------------------------------------------------

 ---------
 O2_O2_221
 ---------
 Symbolic Z-matrix:
 Charge = -2 Multiplicity = 5

                         Standard orientation:
 ---------------------------------------------------------------------
 Center     Atomic      Atomic             Coordinates (Angstroms)
 Number     Number       Type             X           Y           Z
 ---------------------------------------------------------------------
      1          8           0        0.000000    0.000000    2.357099
      2          8           0        0.000000    0.000000    3.709479
      3          8           0        0.000000    0.000000   -3.709479
      4          8           0        0.000000    0.000000   -2.357099
 ---------------------------------------------------------------------

 SCF Done:  E(UHF) =  -298.768829447     A.U. after   11 cycles
 E2 =    -0.1218755967D+01 EUMP2 =    -0.29998758541463D+03
 CCSD(T)
 CCSD(T)= -0.29993780143D+03

 Unable to determine electronic state:  an orbital has unidentified symmetry.
 Alpha  occ. eigenvalues --  -20.24494 -20.24494 -20.21200 -20.21200  -1.11942
 Alpha  occ. eigenvalues --   -1.11941  -0.75868  -0.75847  -0.30496  -0.30492
 Alpha  occ. eigenvalues --   -0.27818  -0.27815  -0.26017  -0.25645  -0.09937
 Alpha  occ. eigenvalues --   -0.09933  -0.07410  -0.07404   0.42824
 Alpha virt. eigenvalues --    0.52824   1.05987   1.08129   1.10342   1.10408
 Alpha virt. eigenvalues --    1.11699   1.11753   1.14364   1.16309   1.19024
 Alpha virt. eigenvalues --    1.19166   1.20216   1.20369   1.33270   1.33274

  Beta  occ. eigenvalues --  -20.18641 -20.18640 -20.16094 -20.16094  -0.95622
  Beta  occ. eigenvalues --   -0.95618  -0.56724  -0.56674  -0.16589  -0.16536
  Beta  occ. eigenvalues --   -0.10853  -0.10591  -0.03678  -0.03674   0.24484
  Beta virt. eigenvalues --    0.33333   0.52996   0.53020   0.77169   0.78392
  Beta virt. eigenvalues --    1.14819   1.16202   1.17902   1.17952   1.18230
  Beta virt. eigenvalues --    1.19827   1.19958   1.19986   1.27042   1.27159

 Mulliken charges and spin densities:
               1          2
     1  O   -0.394318   1.104283
     2  O   -0.605682   0.895717
     3  O   -0.605682   0.895717
     4  O   -0.394318   1.104283
 Sum of Mulliken charges =  -2.00000   4.00000

 Dipole moment (field-independent basis, Debye):
    X=             -0.0000    Y=              0.0000    Z=              0.0000  Tot=              0.0000
 Quadrupole moment (field-independent basis, Debye-Ang):
   XX=            -25.1378   YY=            -23.9734   ZZ=           -130.3309
   XY=             -0.0000   XZ=              0.0000   YZ=             -0.0000

 Normal termination of Gaussian 16 at Sat Jan  7 08:12:29 2023.
