 Gaussian 16, Revision A.03,
 Gaussian 16:  ES64L-G16RevA.03 25-Dec-2016

 ------------------------------------------------
 #p CCSD(T,MaxCyc=300)/cc-pVTZ Guess=Read SCF=XQC
 ------------------------------------------------

 ---------
 O2_O2_148
 ---------
 Symbolic Z-matrix:
 Charge = -2 Multiplicity = 5

                         Standard orientation:
 ---------------------------------------------------------------------
 Center     Atomic      Atomic             Coordinates (Angstroms)
 Number     Number       Type             X           Y           Z
 ---------------------------------------------------------------------
      1          8           0        0.000000    0.000000    1.840311
      2          8           0        0.000000    0.000000    3.192691
      3          8           0        0.000000    0.000000   -3.192691
      4          8           0        0.000000    0.000000   -1.840311
 ---------------------------------------------------------------------

 SCF Done:  E(UHF) =  -298.778997782     A.U. after   16 cycles
 E2 =    -0.1126677999D+01 EUMP2 =    -0.29990567578098D+03
 CCSD(T)
 CCSD(T)= -0.29991268076D+03

 Unable to determine electronic state:  an orbital has unidentified symmetry.
 Alpha  occ. eigenvalues --  -20.24089 -20.24088 -20.19538 -20.19538  -1.10547
 Alpha  occ. eigenvalues --   -1.10533  -0.74285  -0.74158  -0.29280  -0.29238
 Alpha  occ. eigenvalues --   -0.26577  -0.26535  -0.24195  -0.23110  -0.08527
 Alpha  occ. eigenvalues --   -0.08465  -0.06022  -0.05946   0.42218
 Alpha virt. eigenvalues --    0.58573   1.02365   1.11244   1.11402   1.12328
 Alpha virt. eigenvalues --    1.12800   1.13413   1.13590   1.19823   1.20963
 Alpha virt. eigenvalues --    1.21821   1.23111   1.31238   1.34704   1.34781

  Beta  occ. eigenvalues --  -20.18364 -20.18364 -20.14573 -20.14573  -0.94620
  Beta  occ. eigenvalues --   -0.94597  -0.55495  -0.55281  -0.15506  -0.15049
  Beta  occ. eigenvalues --   -0.09682  -0.09159  -0.02438  -0.02390   0.24703
  Beta virt. eigenvalues --    0.35828   0.54342   0.54691   0.76487   0.82356
  Beta virt. eigenvalues --    1.11067   1.17823   1.18674   1.19007   1.19706
  Beta virt. eigenvalues --    1.21115   1.21552   1.27799   1.29791   1.30691

 Mulliken charges and spin densities:
               1          2
     1  O   -0.372047   1.124990
     2  O   -0.627953   0.875010
     3  O   -0.627953   0.875010
     4  O   -0.372047   1.124990
 Sum of Mulliken charges =  -2.00000   4.00000

 Dipole moment (field-independent basis, Debye):
    X=             -0.0000    Y=              0.0000    Z=              0.0000  Tot=              0.0000
 Quadrupole moment (field-independent basis, Debye-Ang):
   XX=            -25.1673   YY=            -24.0074   ZZ=           -101.7397
   XY=             -0.0000   XZ=              0.0000   YZ=             -0.0000

 Normal termination of Gaussian 16 at Sat Jan  7 06:21:25 2023.
