 Gaussian 16, Revision A.03,
 Gaussian 16:  ES64L-G16RevA.03 25-Dec-2016

 ------------------------------------------------
 #p CCSD(T,MaxCyc=300)/cc-pVTZ Guess=Read SCF=XQC
 ------------------------------------------------

 --------
 O2_O2_93
 --------
 Symbolic Z-matrix:
 Charge = -2 Multiplicity = 5

                         Standard orientation:
 ---------------------------------------------------------------------
 Center     Atomic      Atomic             Coordinates (Angstroms)
 Number     Number       Type             X           Y           Z
 ---------------------------------------------------------------------
      1          8           0        0.000000    0.000000    1.450950
      2          8           0        0.000000    0.000000    2.803330
      3          8           0        0.000000    0.000000   -2.803330
      4          8           0        0.000000    0.000000   -1.450950
 ---------------------------------------------------------------------

 SCF Done:  E(UHF) =  -298.782313554     A.U. after   16 cycles
 E2 =    -0.1080628095D+01 EUMP2 =    -0.29986294164877D+03
 CCSD(T)
 CCSD(T)= -0.29988871372D+03

 Unable to determine electronic state:  an orbital has unidentified symmetry.
 Alpha  occ. eigenvalues --  -20.21661 -20.21659 -20.17284 -20.17284  -1.08379
 Alpha  occ. eigenvalues --   -1.08279  -0.72288  -0.71670  -0.26843  -0.26621
 Alpha  occ. eigenvalues --   -0.24501  -0.24256  -0.22762  -0.19814  -0.06668
 Alpha  occ. eigenvalues --   -0.06297  -0.03852  -0.03475   0.41795
 Alpha virt. eigenvalues --    0.63932   1.09484   1.10966   1.12128   1.13308
 Alpha virt. eigenvalues --    1.13510   1.14874   1.16305   1.19561   1.20969
 Alpha virt. eigenvalues --    1.28098   1.29283   1.36491   1.36955   1.60742

  Beta  occ. eigenvalues --  -20.15928 -20.15927 -20.12138 -20.12138  -0.92210
  Beta  occ. eigenvalues --   -0.92059  -0.53371  -0.52404  -0.13706  -0.11738
  Beta  occ. eigenvalues --   -0.07684  -0.06742   0.00181   0.00515   0.25326
  Beta virt. eigenvalues --    0.40785   0.55913   0.57281   0.79918   0.86226
  Beta virt. eigenvalues --    1.16085   1.18438   1.20269   1.20410   1.21961
  Beta virt. eigenvalues --    1.22203   1.24494   1.27651   1.30811   1.36338

 Mulliken charges and spin densities:
               1          2
     1  O   -0.372248   1.074656
     2  O   -0.627752   0.925344
     3  O   -0.627752   0.925344
     4  O   -0.372248   1.074656
 Sum of Mulliken charges =  -2.00000   4.00000

 Dipole moment (field-independent basis, Debye):
    X=             -0.0000    Y=              0.0000    Z=             -0.0000  Tot=              0.0000
 Quadrupole moment (field-independent basis, Debye-Ang):
   XX=            -25.2151   YY=            -24.0371   ZZ=            -82.9882
   XY=             -0.0000   XZ=              0.0000   YZ=             -0.0000

 7\PMP3-0=-299.8218325\MP4SDQ=-299.8038978\CCSD=-299.8007138\CCSD(T)=-2
 Normal termination of Gaussian 16 at Sat Jan  7 05:01:30 2023.
