 Gaussian 16, Revision A.03,
 Gaussian 16:  ES64L-G16RevA.03 25-Dec-2016

 ------------------------------------------------
 #p CCSD(T,MaxCyc=300)/cc-pVTZ Guess=Read SCF=XQC
 ------------------------------------------------

 ---------
 O2_O2_280
 ---------
 Symbolic Z-matrix:
 Charge = -2 Multiplicity = 5

                         Standard orientation:
 ---------------------------------------------------------------------
 Center     Atomic      Atomic             Coordinates (Angstroms)
 Number     Number       Type             X           Y           Z
 ---------------------------------------------------------------------
      1          8           0        0.000000    0.000000    2.774777
      2          8           0        0.000000    0.000000    4.127157
      3          8           0        0.000000    0.000000   -4.127157
      4          8           0        0.000000    0.000000   -2.774777
 ---------------------------------------------------------------------

 SCF Done:  E(UHF) =  -298.771220930     A.U. after    9 cycles
 E2 =    -0.1274206289D+01 EUMP2 =    -0.30004542721873D+03
 CCSD(T)
 CCSD(T)= -0.29995273989D+03

 Unable to determine electronic state:  an orbital has unidentified symmetry.
 Alpha  occ. eigenvalues --  -20.25226 -20.25226 -20.22382 -20.22382  -1.12938
 Alpha  occ. eigenvalues --   -1.12937  -0.76924  -0.76916  -0.31446  -0.31446
 Alpha  occ. eigenvalues --   -0.28789  -0.28789  -0.27088  -0.26871  -0.10982
 Alpha  occ. eigenvalues --   -0.10981  -0.08433  -0.08433   0.42503
 Alpha virt. eigenvalues --    0.50645   1.05772   1.06000   1.09359   1.09366
 Alpha virt. eigenvalues --    1.10717   1.10723   1.13841   1.14193   1.18033
 Alpha virt. eigenvalues --    1.18054   1.19226   1.19248   1.32278   1.32281

  Beta  occ. eigenvalues --  -20.19390 -20.19390 -20.17210 -20.17210  -0.96564
  Beta  occ. eigenvalues --   -0.96562  -0.57713  -0.57687  -0.17574  -0.17568
  Beta  occ. eigenvalues --   -0.11806  -0.11634  -0.04623  -0.04623   0.24071
  Beta virt. eigenvalues --    0.31767   0.51957   0.51959   0.76584   0.76702
  Beta virt. eigenvalues --    1.14495   1.14638   1.16919   1.16923   1.17552
  Beta virt. eigenvalues --    1.17655   1.18999   1.19001   1.26060   1.26066

 Mulliken charges and spin densities:
               1          2
     1  O   -0.409197   1.092889
     2  O   -0.590803   0.907111
     3  O   -0.590803   0.907111
     4  O   -0.409197   1.092889
 Sum of Mulliken charges =  -2.00000   4.00000

 Dipole moment (field-independent basis, Debye):
    X=             -0.0000    Y=             -0.0000    Z=             -0.0000  Tot=              0.0000
 Quadrupole moment (field-independent basis, Debye-Ang):
   XX=            -25.1296   YY=            -23.9652   ZZ=           -156.1978
   XY=             -0.0000   XZ=              0.0000   YZ=             -0.0000

 Normal termination of Gaussian 16 at Sat Jan  7 09:45:51 2023.
