 Gaussian 16, Revision A.03,
 Gaussian 16:  ES64L-G16RevA.03 25-Dec-2016

 ------------------------------------------------
 #p CCSD(T,MaxCyc=300)/cc-pVTZ Guess=Read SCF=XQC
 ------------------------------------------------

 ---------
 O2_O2_142
 ---------
 Symbolic Z-matrix:
 Charge = -2 Multiplicity = 5

                         Standard orientation:
 ---------------------------------------------------------------------
 Center     Atomic      Atomic             Coordinates (Angstroms)
 Number     Number       Type             X           Y           Z
 ---------------------------------------------------------------------
      1          8           0        0.000000    0.000000    1.797835
      2          8           0        0.000000    0.000000    3.150215
      3          8           0        0.000000    0.000000   -3.150215
      4          8           0        0.000000    0.000000   -1.797835
 ---------------------------------------------------------------------

 SCF Done:  E(UHF) =  -298.780260004     A.U. after   16 cycles
 E2 =    -0.1119679119D+01 EUMP2 =    -0.29989993912315D+03
 CCSD(T)
 CCSD(T)= -0.29991034295D+03

 Unable to determine electronic state:  an orbital has unidentified symmetry.
 Alpha  occ. eigenvalues --  -20.24029 -20.24028 -20.19342 -20.19342  -1.10391
 Alpha  occ. eigenvalues --   -1.10373  -0.74114  -0.73964  -0.29136  -0.29084
 Alpha  occ. eigenvalues --   -0.26438  -0.26388  -0.24020  -0.22817  -0.08374
 Alpha  occ. eigenvalues --   -0.08299  -0.05864  -0.05774   0.42111
 Alpha virt. eigenvalues --    0.59210   1.02237   1.11328   1.11466   1.12566
 Alpha virt. eigenvalues --    1.12871   1.13386   1.13816   1.19831   1.20964
 Alpha virt. eigenvalues --    1.22230   1.23533   1.33659   1.34934   1.34951

  Beta  occ. eigenvalues --  -20.18314 -20.18313 -20.14385 -20.14385  -0.94493
  Beta  occ. eigenvalues --   -0.94465  -0.55350  -0.55103  -0.15386  -0.14851
  Beta  occ. eigenvalues --   -0.09542  -0.08982  -0.02279  -0.02222   0.24729
  Beta virt. eigenvalues --    0.36134   0.54474   0.54891   0.76576   0.82726
  Beta virt. eigenvalues --    1.10890   1.17906   1.18775   1.19096   1.19918
  Beta virt. eigenvalues --    1.21221   1.21746   1.27804   1.30209   1.30682

 Mulliken charges and spin densities:
               1          2
     1  O   -0.369963   1.126435
     2  O   -0.630037   0.873565
     3  O   -0.630037   0.873565
     4  O   -0.369963   1.126435
 Sum of Mulliken charges =  -2.00000   4.00000

 Dipole moment (field-independent basis, Debye):
    X=             -0.0000    Y=              0.0000    Z=              0.0000  Tot=              0.0000
 Quadrupole moment (field-independent basis, Debye-Ang):
   XX=            -25.1709   YY=            -24.0108   ZZ=            -99.5562
   XY=             -0.0000   XZ=              0.0000   YZ=             -0.0000

 79\PMP3-0=-299.8651384\MP4SDQ=-299.7926332\CCSD=-299.8098166\CCSD(T)=-
 Normal termination of Gaussian 16 at Sat Jan  7 06:12:35 2023.
