 Gaussian 16, Revision A.03,
 Gaussian 16:  ES64L-G16RevA.03 25-Dec-2016

 ------------------------------------------------
 #p CCSD(T,MaxCyc=300)/cc-pVTZ Guess=Read SCF=XQC
 ------------------------------------------------

 ---------
 O2_O2_143
 ---------
 Symbolic Z-matrix:
 Charge = -2 Multiplicity = 5

                         Standard orientation:
 ---------------------------------------------------------------------
 Center     Atomic      Atomic             Coordinates (Angstroms)
 Number     Number       Type             X           Y           Z
 ---------------------------------------------------------------------
      1          8           0        0.000000    0.000000    1.804914
      2          8           0        0.000000    0.000000    3.157294
      3          8           0        0.000000    0.000000   -3.157294
      4          8           0        0.000000    0.000000   -1.804914
 ---------------------------------------------------------------------

 SCF Done:  E(UHF) =  -298.780058556     A.U. after   16 cycles
 E2 =    -0.1120808682D+01 EUMP2 =    -0.29990086723818D+03
 CCSD(T)
 CCSD(T)= -0.29991073588D+03

 Unable to determine electronic state:  an orbital has unidentified symmetry.
 Alpha  occ. eigenvalues --  -20.24041 -20.24040 -20.19376 -20.19376  -1.10418
 Alpha  occ. eigenvalues --   -1.10401  -0.74143  -0.73998  -0.29161  -0.29112
 Alpha  occ. eigenvalues --   -0.26462  -0.26414  -0.24049  -0.22867  -0.08401
 Alpha  occ. eigenvalues --   -0.08328  -0.05891  -0.05804   0.42129
 Alpha virt. eigenvalues --    0.59104   1.02249   1.11316   1.11455   1.12525
 Alpha virt. eigenvalues --    1.12860   1.13389   1.13777   1.19830   1.20964
 Alpha virt. eigenvalues --    1.22159   1.23459   1.33258   1.34878   1.34922

  Beta  occ. eigenvalues --  -20.18324 -20.18324 -20.14418 -20.14418  -0.94516
  Beta  occ. eigenvalues --   -0.94489  -0.55376  -0.55134  -0.15407  -0.14886
  Beta  occ. eigenvalues --   -0.09567  -0.09013  -0.02308  -0.02252   0.24724
  Beta virt. eigenvalues --    0.36081   0.54452   0.54857   0.76556   0.82664
  Beta virt. eigenvalues --    1.10911   1.17892   1.18757   1.19081   1.19881
  Beta virt. eigenvalues --    1.21203   1.21712   1.27804   1.30135   1.30684

 Mulliken charges and spin densities:
               1          2
     1  O   -0.370308   1.126236
     2  O   -0.629692   0.873764
     3  O   -0.629692   0.873764
     4  O   -0.370308   1.126236
 Sum of Mulliken charges =  -2.00000   4.00000

 Dipole moment (field-independent basis, Debye):
    X=             -0.0000    Y=              0.0000    Z=             -0.0000  Tot=              0.0000
 Quadrupole moment (field-independent basis, Debye-Ang):
   XX=            -25.1703   YY=            -24.0102   ZZ=            -99.9173
   XY=             -0.0000   XZ=              0.0000   YZ=             -0.0000

 Normal termination of Gaussian 16 at Sat Jan  7 06:14:00 2023.
