 Gaussian 16, Revision A.03,
 Gaussian 16:  ES64L-G16RevA.03 25-Dec-2016

 ------------------------------------------------
 #p CCSD(T,MaxCyc=300)/cc-pVTZ Guess=Read SCF=XQC
 ------------------------------------------------

 ---------
 O2_O2_190
 ---------
 Symbolic Z-matrix:
 Charge = -2 Multiplicity = 5

                         Standard orientation:
 ---------------------------------------------------------------------
 Center     Atomic      Atomic             Coordinates (Angstroms)
 Number     Number       Type             X           Y           Z
 ---------------------------------------------------------------------
      1          8           0        0.000000    0.000000    2.137641
      2          8           0        0.000000    0.000000    3.490021
      3          8           0        0.000000    0.000000   -3.490021
      4          8           0        0.000000    0.000000   -2.137641
 ---------------------------------------------------------------------

 SCF Done:  E(UHF) =  -298.770773722     A.U. after   12 cycles
 E2 =    -0.1181907796D+01 EUMP2 =    -0.29995268151821D+03
 CCSD(T)
 CCSD(T)= -0.29992796188D+03

 Unable to determine electronic state:  an orbital has unidentified symmetry.
 Alpha  occ. eigenvalues --  -20.24246 -20.24246 -20.20559 -20.20559  -1.11390
 Alpha  occ. eigenvalues --   -1.11387  -0.75255  -0.75213  -0.30000  -0.29990
 Alpha  occ. eigenvalues --   -0.27309  -0.27299  -0.25325  -0.24769  -0.09373
 Alpha  occ. eigenvalues --   -0.09358  -0.06856  -0.06837   0.42774
 Alpha virt. eigenvalues --    0.54710   1.04916   1.09833   1.10852   1.11076
 Alpha virt. eigenvalues --    1.12215   1.12402   1.14039   1.19495   1.19619
 Alpha virt. eigenvalues --    1.19964   1.20679   1.21186   1.33836   1.33849

  Beta  occ. eigenvalues --  -20.18426 -20.18425 -20.15505 -20.15505  -0.95188
  Beta  occ. eigenvalues --   -0.95180  -0.56221  -0.56135  -0.16118  -0.15975
  Beta  occ. eigenvalues --   -0.10372  -0.10031  -0.03182  -0.03170   0.24617
  Beta virt. eigenvalues --    0.34261   0.53555   0.53639   0.76938   0.79878
  Beta virt. eigenvalues --    1.13771   1.17072   1.18314   1.18408   1.18582
  Beta virt. eigenvalues --    1.20462   1.20564   1.23299   1.27500   1.27940

 Mulliken charges and spin densities:
               1          2
     1  O   -0.385512   1.111474
     2  O   -0.614488   0.888526
     3  O   -0.614488   0.888526
     4  O   -0.385512   1.111474
 Sum of Mulliken charges =  -2.00000   4.00000

 Dipole moment (field-independent basis, Debye):
    X=             -0.0000    Y=              0.0000    Z=             -0.0000  Tot=              0.0000
 Quadrupole moment (field-independent basis, Debye-Ang):
   XX=            -25.1470   YY=            -23.9846   ZZ=           -117.8127
   XY=             -0.0000   XZ=              0.0000   YZ=             -0.0000

 Normal termination of Gaussian 16 at Sat Jan  7 07:25:03 2023.
