 Gaussian 16, Revision A.03,
 Gaussian 16:  ES64L-G16RevA.03 25-Dec-2016

 ------------------------------------------------
 #p CCSD(T,MaxCyc=300)/cc-pVTZ Guess=Read SCF=XQC
 ------------------------------------------------

 --------
 O2_O2_63
 --------
 Symbolic Z-matrix:
 Charge = -2 Multiplicity = 5

                         Standard orientation:
 ---------------------------------------------------------------------
 Center     Atomic      Atomic             Coordinates (Angstroms)
 Number     Number       Type             X           Y           Z
 ---------------------------------------------------------------------
      1          8           0        0.000000    0.000000    1.238571
      2          8           0        0.000000    0.000000    2.590951
      3          8           0        0.000000    0.000000   -2.590951
      4          8           0        0.000000    0.000000   -1.238571
 ---------------------------------------------------------------------

 SCF Done:  E(UHF) =  -298.779711116     A.U. after   14 cycles
 E2 =    -0.1055122954D+01 EUMP2 =    -0.29983483407045D+03
 CCSD(T)
 CCSD(T)= -0.29987100700D+03

 Unable to determine electronic state:  an orbital has unidentified symmetry.
 Alpha  occ. eigenvalues --  -20.18927 -20.18924 -20.15522 -20.15522  -1.06790
 Alpha  occ. eigenvalues --   -1.06488  -0.71125  -0.69524  -0.25027  -0.24508
 Alpha  occ. eigenvalues --   -0.22871  -0.22506  -0.22232  -0.17089  -0.05161
 Alpha  occ. eigenvalues --   -0.04150  -0.02268  -0.01369   0.41980
 Alpha virt. eigenvalues --    0.66992   1.10396   1.12893   1.13352   1.13724
 Alpha virt. eigenvalues --    1.16218   1.18019   1.19746   1.21570   1.23323
 Alpha virt. eigenvalues --    1.33672   1.34531   1.37627   1.38433   1.77067

  Beta  occ. eigenvalues --  -20.13155 -20.13153 -20.10166 -20.10166  -0.90092
  Beta  occ. eigenvalues --   -0.89654  -0.52211  -0.49756  -0.12800  -0.08337
  Beta  occ. eigenvalues --   -0.06380  -0.05078   0.01611   0.02623   0.25684
  Beta virt. eigenvalues --    0.45567   0.57178   0.59662   0.82988   0.88889
  Beta virt. eigenvalues --    1.19080   1.19900   1.21562   1.22712   1.23283
  Beta virt. eigenvalues --    1.26804   1.28066   1.28845   1.31898   1.39360

 Mulliken charges and spin densities:
               1          2
     1  O   -0.373856   1.007743
     2  O   -0.626144   0.992257
     3  O   -0.626144   0.992257
     4  O   -0.373856   1.007743
 Sum of Mulliken charges =  -2.00000   4.00000

 Dipole moment (field-independent basis, Debye):
    X=             -0.0000    Y=              0.0000    Z=             -0.0000  Tot=              0.0000
 Quadrupole moment (field-independent basis, Debye-Ang):
   XX=            -25.2648   YY=            -24.0302   ZZ=            -74.8165
   XY=             -0.0000   XZ=              0.0000   YZ=             -0.0000

 Normal termination of Gaussian 16 at Sat Jan  7 04:20:17 2023.
