 Gaussian 16, Revision A.03,
 Gaussian 16:  ES64L-G16RevA.03 25-Dec-2016

 ------------------------------------------------
 #p CCSD(T,MaxCyc=300)/cc-pVTZ Guess=Read SCF=XQC
 ------------------------------------------------

 ---------
 O2_O2_119
 ---------
 Symbolic Z-matrix:
 Charge = -2 Multiplicity = 5

                         Standard orientation:
 ---------------------------------------------------------------------
 Center     Atomic      Atomic             Coordinates (Angstroms)
 Number     Number       Type             X           Y           Z
 ---------------------------------------------------------------------
      1          8           0        0.000000    0.000000    1.635011
      2          8           0        0.000000    0.000000    2.987391
      3          8           0        0.000000    0.000000   -2.987391
      4          8           0        0.000000    0.000000   -1.635011
 ---------------------------------------------------------------------

 SCF Done:  E(UHF) =  -298.783224160     A.U. after   16 cycles
 E2 =    -0.1098506812D+01 EUMP2 =    -0.29988173097168D+03
 CCSD(T)
 CCSD(T)= -0.29990088998D+03

 Unable to determine electronic state:  an orbital has unidentified symmetry.
 Alpha  occ. eigenvalues --  -20.23451 -20.23450 -20.18426 -20.18426  -1.09622
 Alpha  occ. eigenvalues --   -1.09582  -0.73346  -0.73060  -0.28337  -0.28230
 Alpha  occ. eigenvalues --   -0.25728  -0.25622  -0.23371  -0.21561  -0.07672
 Alpha  occ. eigenvalues --   -0.07517  -0.05083  -0.04906   0.41794
 Alpha virt. eigenvalues --    0.61565   1.03436   1.11410   1.11699   1.13100
 Alpha virt. eigenvalues --    1.13447   1.13630   1.14863   1.19775   1.20922
 Alpha virt. eigenvalues --    1.24337   1.25676   1.35478   1.35755   1.45241

  Beta  occ. eigenvalues --  -20.17737 -20.17736 -20.13450 -20.13450  -0.93722
  Beta  occ. eigenvalues --   -0.93662  -0.54587  -0.54134  -0.14742  -0.13769
  Beta  occ. eigenvalues --   -0.08796  -0.08065  -0.01367  -0.01245   0.24921
  Beta virt. eigenvalues --    0.37723   0.55059   0.55835   0.77606   0.84224
  Beta virt. eigenvalues --    1.11657   1.18201   1.19319   1.19510   1.20862
  Beta virt. eigenvalues --    1.21698   1.22745   1.27754   1.30606   1.32401

 Mulliken charges and spin densities:
               1          2
     1  O   -0.363872   1.121805
     2  O   -0.636128   0.878195
     3  O   -0.636128   0.878195
     4  O   -0.363872   1.121805
 Sum of Mulliken charges =  -2.00000   4.00000

 Dipole moment (field-independent basis, Debye):
    X=             -0.0000    Y=             -0.0000    Z=              0.0000  Tot=              0.0000
 Quadrupole moment (field-independent basis, Debye-Ang):
   XX=            -25.1878   YY=            -24.0249   ZZ=            -91.5762
   XY=             -0.0000   XZ=              0.0000   YZ=             -0.0000

 Normal termination of Gaussian 16 at Sat Jan  7 05:38:13 2023.
