 Gaussian 16, Revision A.03,
 Gaussian 16:  ES64L-G16RevA.03 25-Dec-2016

 ------------------------------------------------
 #p CCSD(T,MaxCyc=300)/cc-pVTZ Guess=Read SCF=XQC
 ------------------------------------------------

 --------
 O2_O2_78
 --------
 Symbolic Z-matrix:
 Charge = -2 Multiplicity = 5

                         Standard orientation:
 ---------------------------------------------------------------------
 Center     Atomic      Atomic             Coordinates (Angstroms)
 Number     Number       Type             X           Y           Z
 ---------------------------------------------------------------------
      1          8           0        0.000000    0.000000    1.344760
      2          8           0        0.000000    0.000000    2.697140
      3          8           0        0.000000    0.000000   -2.697140
      4          8           0        0.000000    0.000000   -1.344760
 ---------------------------------------------------------------------

 SCF Done:  E(UHF) =  -298.780962789     A.U. after   14 cycles
 E2 =    -0.1068600083D+01 EUMP2 =    -0.29984956287198D+03
 CCSD(T)
 CCSD(T)= -0.29988053549D+03

 Unable to determine electronic state:  an orbital has unidentified symmetry.
 Alpha  occ. eigenvalues --  -20.20295 -20.20293 -20.16475 -20.16475  -1.07576
 Alpha  occ. eigenvalues --   -1.07404  -0.71655  -0.70668  -0.25909  -0.25572
 Alpha  occ. eigenvalues --   -0.23674  -0.23279  -0.22542  -0.18574  -0.05926
 Alpha  occ. eigenvalues --   -0.05308  -0.03053  -0.02470   0.41907
 Alpha virt. eigenvalues --    0.65344   1.10639   1.12450   1.13446   1.13474
 Alpha virt. eigenvalues --    1.15534   1.15544   1.17164   1.19541   1.21165
 Alpha virt. eigenvalues --    1.30822   1.31840   1.37086   1.37697   1.69495

  Beta  occ. eigenvalues --  -20.14548 -20.14547 -20.11217 -20.11217  -0.91154
  Beta  occ. eigenvalues --   -0.90898  -0.52695  -0.51162  -0.13151  -0.10184
  Beta  occ. eigenvalues --   -0.07033  -0.05941   0.00966   0.01557   0.25584
  Beta virt. eigenvalues --    0.43057   0.56544   0.58389   0.81474   0.87519
  Beta virt. eigenvalues --    1.18669   1.18884   1.20847   1.22409   1.22603
  Beta virt. eigenvalues --    1.22981   1.25648   1.27727   1.31228   1.38754

 Mulliken charges and spin densities:
               1          2
     1  O   -0.376048   1.039804
     2  O   -0.623952   0.960196
     3  O   -0.623952   0.960196
     4  O   -0.376048   1.039804
 Sum of Mulliken charges =  -2.00000   4.00000

 Dipole moment (field-independent basis, Debye):
    X=             -0.0000    Y=              0.0000    Z=              0.0000  Tot=              0.0000
 Quadrupole moment (field-independent basis, Debye-Ang):
   XX=            -25.2371   YY=            -24.0343   ZZ=            -78.6286
   XY=             -0.0000   XZ=              0.0000   YZ=             -0.0000

 Normal termination of Gaussian 16 at Sat Jan  7 04:40:59 2023.
