 Gaussian 16, Revision A.03,
 Gaussian 16:  ES64L-G16RevA.03 25-Dec-2016

 ------------------------------------------------
 #p CCSD(T,MaxCyc=300)/cc-pVTZ Guess=Read SCF=XQC
 ------------------------------------------------

 ---------
 O2_O2_132
 ---------
 Symbolic Z-matrix:
 Charge = -2 Multiplicity = 5

                         Standard orientation:
 ---------------------------------------------------------------------
 Center     Atomic      Atomic             Coordinates (Angstroms)
 Number     Number       Type             X           Y           Z
 ---------------------------------------------------------------------
      1          8           0        0.000000    0.000000    1.727042
      2          8           0        0.000000    0.000000    3.079422
      3          8           0        0.000000    0.000000   -3.079422
      4          8           0        0.000000    0.000000   -1.727042
 ---------------------------------------------------------------------

 SCF Done:  E(UHF) =  -298.781992324     A.U. after   16 cycles
 E2 =    -0.1109313754D+01 EUMP2 =    -0.29989130607819D+03
 CCSD(T)
 CCSD(T)= -0.29990634130D+03

 Unable to determine electronic state:  an orbital has unidentified symmetry.
 Alpha  occ. eigenvalues --  -20.23859 -20.23858 -20.18973 -20.18973  -1.10092
 Alpha  occ. eigenvalues --   -1.10067  -0.73801  -0.73604  -0.28843  -0.28772
 Alpha  occ. eigenvalues --   -0.26168  -0.26098  -0.23730  -0.22296  -0.08090
 Alpha  occ. eigenvalues --   -0.07988  -0.05561  -0.05440   0.41947
 Alpha virt. eigenvalues --    0.60265   1.02381   1.11412   1.11567   1.12980
 Alpha virt. eigenvalues --    1.13002   1.13386   1.14236   1.19824   1.20950
 Alpha virt. eigenvalues --    1.23031   1.24356   1.35037   1.35269   1.38460

  Beta  occ. eigenvalues --  -20.18152 -20.18151 -20.14019 -20.14019  -0.94220
  Beta  occ. eigenvalues --   -0.94181  -0.55061  -0.54742  -0.15143  -0.14451
  Beta  occ. eigenvalues --   -0.09260  -0.08632  -0.01949  -0.01870   0.24794
  Beta virt. eigenvalues --    0.36731   0.54714   0.55267   0.76886   0.83356
  Beta virt. eigenvalues --    1.10907   1.18039   1.18980   1.19258   1.20305
  Beta virt. eigenvalues --    1.21417   1.22126   1.27795   1.30651   1.31035

 Mulliken charges and spin densities:
               1          2
     1  O   -0.366683   1.127071
     2  O   -0.633317   0.872929
     3  O   -0.633317   0.872929
     4  O   -0.366683   1.127071
 Sum of Mulliken charges =  -2.00000   4.00000

 Dipole moment (field-independent basis, Debye):
    X=             -0.0000    Y=              0.0000    Z=              0.0000  Tot=              0.0000
 Quadrupole moment (field-independent basis, Debye-Ang):
   XX=            -25.1775   YY=            -24.0166   ZZ=            -96.0116
   XY=             -0.0000   XZ=              0.0000   YZ=             -0.0000

 Normal termination of Gaussian 16 at Sat Jan  7 05:57:48 2023.
