 Gaussian 16, Revision A.03,
 Gaussian 16:  ES64L-G16RevA.03 25-Dec-2016

 ------------------------------------------------
 #p CCSD(T,MaxCyc=300)/cc-pVTZ Guess=Read SCF=XQC
 ------------------------------------------------

 ---------
 O2_O2_290
 ---------
 Symbolic Z-matrix:
 Charge = -2 Multiplicity = 5

                         Standard orientation:
 ---------------------------------------------------------------------
 Center     Atomic      Atomic             Coordinates (Angstroms)
 Number     Number       Type             X           Y           Z
 ---------------------------------------------------------------------
      1          8           0        0.000000    0.000000    2.845570
      2          8           0        0.000000    0.000000    4.197950
      3          8           0        0.000000    0.000000   -4.197950
      4          8           0        0.000000    0.000000   -2.845570
 ---------------------------------------------------------------------

 SCF Done:  E(UHF) =  -298.771886048     A.U. after    9 cycles
 E2 =    -0.1282520246D+01 EUMP2 =    -0.30005440629451D+03
 CCSD(T)
 CCSD(T)= -0.29995486652D+03

 Unable to determine electronic state:  an orbital has unidentified symmetry.
 Alpha  occ. eigenvalues --  -20.25353 -20.25353 -20.22568 -20.22567  -1.13092
 Alpha  occ. eigenvalues --   -1.13091  -0.77085  -0.77078  -0.31596  -0.31596
 Alpha  occ. eigenvalues --   -0.28942  -0.28942  -0.27244  -0.27043  -0.11145
 Alpha  occ. eigenvalues --   -0.11145  -0.08593  -0.08592   0.42434
 Alpha virt. eigenvalues --    0.50373   1.05633   1.05783   1.09206   1.09212
 Alpha virt. eigenvalues --    1.10564   1.10568   1.13694   1.13987   1.17877
 Alpha virt. eigenvalues --    1.17894   1.19069   1.19088   1.32127   1.32129

  Beta  occ. eigenvalues --  -20.19523 -20.19523 -20.17387 -20.17387  -0.96718
  Beta  occ. eigenvalues --   -0.96716  -0.57870  -0.57846  -0.17733  -0.17729
  Beta  occ. eigenvalues --   -0.11958  -0.11797  -0.04771  -0.04771   0.23998
  Beta virt. eigenvalues --    0.31531   0.51795   0.51796   0.76435   0.76508
  Beta virt. eigenvalues --    1.14353   1.14444   1.16765   1.16768   1.17395
  Beta virt. eigenvalues --    1.17457   1.18850   1.18850   1.25904   1.25908

 Mulliken charges and spin densities:
               1          2
     1  O   -0.411405   1.091123
     2  O   -0.588595   0.908877
     3  O   -0.588595   0.908877
     4  O   -0.411405   1.091123
 Sum of Mulliken charges =  -2.00000   4.00000

 Dipole moment (field-independent basis, Debye):
    X=             -0.0000    Y=              0.0000    Z=              0.0000  Tot=              0.0000
 Quadrupole moment (field-independent basis, Debye-Ang):
   XX=            -25.1288   YY=            -23.9646   ZZ=           -160.8948
   XY=             -0.0000   XZ=              0.0000   YZ=             -0.0000

 282\PMP3-0=-300.0855407\MP4SDQ=-299.3854767\CCSD=-299.8265435\CCSD(T)=
 Normal termination of Gaussian 16 at Sat Jan  7 10:00:42 2023.
