 Gaussian 16, Revision A.03,
 Gaussian 16:  ES64L-G16RevA.03 25-Dec-2016

 ------------------------------------------------
 #p CCSD(T,MaxCyc=300)/cc-pVTZ Guess=Read SCF=XQC
 ------------------------------------------------

 ---------
 O2_O2_152
 ---------
 Symbolic Z-matrix:
 Charge = -2 Multiplicity = 5

                         Standard orientation:
 ---------------------------------------------------------------------
 Center     Atomic      Atomic             Coordinates (Angstroms)
 Number     Number       Type             X           Y           Z
 ---------------------------------------------------------------------
      1          8           0        0.000000    0.000000    1.868627
      2          8           0        0.000000    0.000000    3.221008
      3          8           0        0.000000    0.000000   -3.221008
      4          8           0        0.000000    0.000000   -1.868627
 ---------------------------------------------------------------------

 SCF Done:  E(UHF) =  -298.778103880     A.U. after   16 cycles
 E2 =    -0.1131607247D+01 EUMP2 =    -0.29990971112718D+03
 CCSD(T)
 CCSD(T)= -0.29991421623D+03

 Unable to determine electronic state:  an orbital has unidentified symmetry.
 Alpha  occ. eigenvalues --  -20.24116 -20.24116 -20.19659 -20.19659  -1.10644
 Alpha  occ. eigenvalues --   -1.10631  -0.74393  -0.74280  -0.29366  -0.29329
 Alpha  occ. eigenvalues --   -0.26661  -0.26625  -0.24311  -0.23297  -0.08623
 Alpha  occ. eigenvalues --   -0.08568  -0.06118  -0.06052   0.42290
 Alpha virt. eigenvalues --    0.58152   1.02520   1.11174   1.11358   1.12179
 Alpha virt. eigenvalues --    1.12751   1.13443   1.13449   1.19812   1.20958
 Alpha virt. eigenvalues --    1.21575   1.22855   1.29698   1.34600   1.34676

  Beta  occ. eigenvalues --  -20.18384 -20.18383 -20.14687 -20.14687  -0.94693
  Beta  occ. eigenvalues --   -0.94672  -0.55582  -0.55388  -0.15579  -0.15166
  Beta  occ. eigenvalues --   -0.09766  -0.09265  -0.02531  -0.02489   0.24690
  Beta virt. eigenvalues --    0.35642   0.54258   0.54567   0.76463   0.82112
  Beta virt. eigenvalues --    1.11246   1.17766   1.18615   1.18950   1.19574
  Beta virt. eigenvalues --    1.21047   1.21433   1.27791   1.29541   1.30692

 Mulliken charges and spin densities:
               1          2
     1  O   -0.373435   1.123774
     2  O   -0.626565   0.876226
     3  O   -0.626565   0.876226
     4  O   -0.373435   1.123774
 Sum of Mulliken charges =  -2.00000   4.00000

 Dipole moment (field-independent basis, Debye):
    X=             -0.0000    Y=              0.0000    Z=             -0.0000  Tot=              0.0000
 Quadrupole moment (field-independent basis, Debye-Ang):
   XX=            -25.1651   YY=            -24.0051   ZZ=           -103.2163
   XY=             -0.0000   XZ=              0.0000   YZ=             -0.0000

 Normal termination of Gaussian 16 at Sat Jan  7 06:27:19 2023.
