 Gaussian 16, Revision A.03,
 Gaussian 16:  ES64L-G16RevA.03 25-Dec-2016

 ------------------------------------------------
 #p CCSD(T,MaxCyc=300)/cc-pVTZ Guess=Read SCF=XQC
 ------------------------------------------------

 ---------
 O2_O2_273
 ---------
 Symbolic Z-matrix:
 Charge = -2 Multiplicity = 5

                         Standard orientation:
 ---------------------------------------------------------------------
 Center     Atomic      Atomic             Coordinates (Angstroms)
 Number     Number       Type             X           Y           Z
 ---------------------------------------------------------------------
      1          8           0        0.000000    0.000000    2.725222
      2          8           0        0.000000    0.000000    4.077602
      3          8           0        0.000000    0.000000   -4.077602
      4          8           0        0.000000    0.000000   -2.725222
 ---------------------------------------------------------------------

 SCF Done:  E(UHF) =  -298.770769323     A.U. after   15 cycles
 E2 =    -0.1268272263D+01 EUMP2 =    -0.30003904158602D+03
 CCSD(T)
 CCSD(T)= -0.29995119039D+03

 Unable to determine electronic state:  an orbital has unidentified symmetry.
 Alpha  occ. eigenvalues --  -20.25136 -20.25136 -20.22249 -20.22249  -1.12827
 Alpha  occ. eigenvalues --   -1.12826  -0.76808  -0.76800  -0.31339  -0.31338
 Alpha  occ. eigenvalues --   -0.28679  -0.28679  -0.26974  -0.26746  -0.10865
 Alpha  occ. eigenvalues --   -0.10864  -0.08319  -0.08318   0.42552
 Alpha virt. eigenvalues --    0.50847   1.05863   1.06169   1.09469   1.09478
 Alpha virt. eigenvalues --    1.10827   1.10834   1.13942   1.14350   1.18146
 Alpha virt. eigenvalues --    1.18170   1.19338   1.19365   1.32387   1.32390

  Beta  occ. eigenvalues --  -20.19295 -20.19295 -20.17084 -20.17084  -0.96454
  Beta  occ. eigenvalues --   -0.96452  -0.57601  -0.57573  -0.17460  -0.17452
  Beta  occ. eigenvalues --   -0.11697  -0.11517  -0.04516  -0.04516   0.24123
  Beta virt. eigenvalues --    0.31938   0.52074   0.52076   0.76686   0.76848
  Beta virt. eigenvalues --    1.14590   1.14784   1.17030   1.17035   1.17660
  Beta virt. eigenvalues --    1.17807   1.19107   1.19109   1.26171   1.26180

 Mulliken charges and spin densities:
               1          2
     1  O   -0.407601   1.094146
     2  O   -0.592399   0.905854
     3  O   -0.592399   0.905854
     4  O   -0.407601   1.094146
 Sum of Mulliken charges =  -2.00000   4.00000

 Dipole moment (field-independent basis, Debye):
    X=             -0.0000    Y=             -0.0000    Z=             -0.0000  Tot=              0.0000
 Quadrupole moment (field-independent basis, Debye-Ang):
   XX=            -25.1302   YY=            -23.9656   ZZ=           -152.9658
   XY=             -0.0000   XZ=              0.0000   YZ=             -0.0000

 Normal termination of Gaussian 16 at Sat Jan  7 09:34:45 2023.
