 Gaussian 16, Revision A.03,
 Gaussian 16:  ES64L-G16RevA.03 25-Dec-2016

 ------------------------------------------------
 #p CCSD(T,MaxCyc=300)/cc-pVTZ Guess=Read SCF=XQC
 ------------------------------------------------

 ---------
 O2_O2_135
 ---------
 Symbolic Z-matrix:
 Charge = -2 Multiplicity = 5

                         Standard orientation:
 ---------------------------------------------------------------------
 Center     Atomic      Atomic             Coordinates (Angstroms)
 Number     Number       Type             X           Y           Z
 ---------------------------------------------------------------------
      1          8           0        0.000000    0.000000    1.748280
      2          8           0        0.000000    0.000000    3.100660
      3          8           0        0.000000    0.000000   -3.100660
      4          8           0        0.000000    0.000000   -1.748280
 ---------------------------------------------------------------------

 SCF Done:  E(UHF) =  -298.781533999     A.U. after   16 cycles
 E2 =    -0.1112237220D+01 EUMP2 =    -0.29989377121914D+03
 CCSD(T)
 CCSD(T)= -0.29990755708D+03

 Unable to determine electronic state:  an orbital has unidentified symmetry.
 Alpha  occ. eigenvalues --  -20.23921 -20.23920 -20.19089 -20.19089  -1.10187
 Alpha  occ. eigenvalues --   -1.10164  -0.73899  -0.73717  -0.28939  -0.28874
 Alpha  occ. eigenvalues --   -0.26254  -0.26191  -0.23816  -0.22457  -0.08179
 Alpha  occ. eigenvalues --   -0.08086  -0.05658  -0.05546   0.41993
 Alpha virt. eigenvalues --    0.59952   1.02284   1.11394   1.11537   1.12866
 Alpha virt. eigenvalues --    1.12949   1.13381   1.14104   1.19828   1.20955
 Alpha virt. eigenvalues --    1.22774   1.24093   1.34923   1.35169   1.37040

  Beta  occ. eigenvalues --  -20.18212 -20.18212 -20.14136 -20.14136  -0.94311
  Beta  occ. eigenvalues --   -0.94275  -0.55155  -0.54859  -0.15222  -0.14581
  Beta  occ. eigenvalues --   -0.09352  -0.08744  -0.02058  -0.01986   0.24772
  Beta virt. eigenvalues --    0.36539   0.54640   0.55149   0.76771   0.83164
  Beta virt. eigenvalues --    1.10856   1.17999   1.18914   1.19207   1.20185
  Beta virt. eigenvalues --    1.21356   1.22004   1.27800   1.30662   1.30769

 Mulliken charges and spin densities:
               1          2
     1  O   -0.367618   1.127189
     2  O   -0.632382   0.872811
     3  O   -0.632382   0.872811
     4  O   -0.367618   1.127189
 Sum of Mulliken charges =  -2.00000   4.00000

 Dipole moment (field-independent basis, Debye):
    X=             -0.0000    Y=             -0.0000    Z=             -0.0000  Tot=              0.0000
 Quadrupole moment (field-independent basis, Debye-Ang):
   XX=            -25.1755   YY=            -24.0148   ZZ=            -97.0620
   XY=             -0.0000   XZ=              0.0000   YZ=             -0.0000

 Normal termination of Gaussian 16 at Sat Jan  7 06:02:19 2023.
