 Gaussian 16, Revision A.03,
 Gaussian 16:  ES64L-G16RevA.03 25-Dec-2016

 ------------------------------------------------
 #p CCSD(T,MaxCyc=300)/cc-pVTZ Guess=Read SCF=XQC
 ------------------------------------------------

 -------
 O2_O2_5
 -------
 Symbolic Z-matrix:
 Charge = -2 Multiplicity = 5

                         Standard orientation:
 ---------------------------------------------------------------------
 Center     Atomic      Atomic             Coordinates (Angstroms)
 Number     Number       Type             X           Y           Z
 ---------------------------------------------------------------------
      1          8           0        0.000000    0.000000    0.827972
      2          8           0        0.000000    0.000000    2.180352
      3          8           0        0.000000    0.000000   -2.180352
      4          8           0        0.000000    0.000000   -0.827972
 ---------------------------------------------------------------------

 SCF Done:  E(UHF) =  -298.730087851     A.U. after   13 cycles
 E2 =    -0.9849975315D+00 EUMP2 =    -0.29971508538257D+03
 CCSD(T)
 CCSD(T)= -0.29976984254D+03

 Unable to determine electronic state:  an orbital has unidentified symmetry.
 Alpha  occ. eigenvalues --  -20.12069 -20.12054 -20.09886 -20.09886  -1.04545
 Alpha  occ. eigenvalues --   -1.01431  -0.73068  -0.61622  -0.25614  -0.22206
 Alpha  occ. eigenvalues --   -0.20796  -0.19165  -0.16249  -0.05267  -0.03137
 Alpha  occ. eigenvalues --    0.00344   0.03609   0.05365   0.39843
 Alpha virt. eigenvalues --    0.82509   1.10331   1.11955   1.17489   1.18546
 Alpha virt. eigenvalues --    1.19167   1.21740   1.25114   1.26758   1.38469
 Alpha virt. eigenvalues --    1.39193   1.43688   1.43981   1.54730   1.92944

  Beta  occ. eigenvalues --  -20.06581 -20.06572 -20.04026 -20.04026  -0.87535
  Beta  occ. eigenvalues --   -0.83025  -0.56156  -0.40733  -0.13860  -0.04100
  Beta  occ. eigenvalues --   -0.00490   0.00718   0.06761   0.08738   0.22673
  Beta virt. eigenvalues --    0.59322   0.59887   0.66893   0.88184   0.96164
  Beta virt. eigenvalues --    1.20504   1.23948   1.25704   1.26617   1.26985
  Beta virt. eigenvalues --    1.32130   1.34742   1.38039   1.40884   1.41378

 Mulliken charges and spin densities:
               1          2
     1  O   -0.334499   0.850000
     2  O   -0.665501   1.150000
     3  O   -0.665501   1.150000
     4  O   -0.334499   0.850000
 Sum of Mulliken charges =  -2.00000   4.00000

 Dipole moment (field-independent basis, Debye):
    X=             -0.0000    Y=              0.0000    Z=              0.0000  Tot=              0.0000
 Quadrupole moment (field-independent basis, Debye-Ang):
   XX=            -25.1933   YY=            -23.8238   ZZ=            -63.5999
   XY=             -0.0000   XZ=              0.0000   YZ=             -0.0000

 Normal termination of Gaussian 16 at Sat Jan  7 03:01:07 2023.
