 Gaussian 16, Revision A.03,
 Gaussian 16:  ES64L-G16RevA.03 25-Dec-2016

 ------------------------------------------------
 #p CCSD(T,MaxCyc=300)/cc-pVTZ Guess=Read SCF=XQC
 ------------------------------------------------

 --------
 O2_O2_25
 --------
 Symbolic Z-matrix:
 Charge = -2 Multiplicity = 5

                         Standard orientation:
 ---------------------------------------------------------------------
 Center     Atomic      Atomic             Coordinates (Angstroms)
 Number     Number       Type             X           Y           Z
 ---------------------------------------------------------------------
      1          8           0        0.000000    0.000000    0.969558
      2          8           0        0.000000    0.000000    2.321938
      3          8           0        0.000000    0.000000   -2.321938
      4          8           0        0.000000    0.000000   -0.969558
 ---------------------------------------------------------------------

 SCF Done:  E(UHF) =  -298.767074269     A.U. after   13 cycles
 E2 =    -0.1012474574D+01 EUMP2 =    -0.29977954884358D+03
 CCSD(T)
 CCSD(T)= -0.29982825177D+03

 Unable to determine electronic state:  an orbital has unidentified symmetry.
 Alpha  occ. eigenvalues --  -20.14849 -20.14841 -20.12427 -20.12427  -1.04957
 Alpha  occ. eigenvalues --   -1.03623  -0.71047  -0.65306  -0.23736  -0.22963
 Alpha  occ. eigenvalues --   -0.21369  -0.21090  -0.18857  -0.10997  -0.03491
 Alpha  occ. eigenvalues --   -0.00441   0.00008   0.02312   0.41409
 Alpha virt. eigenvalues --    0.74321   1.09978   1.12501   1.15698   1.16432
 Alpha virt. eigenvalues --    1.18006   1.20280   1.22037   1.24027   1.38592
 Alpha virt. eigenvalues --    1.39226   1.40583   1.41064   1.47164   1.90922

  Beta  occ. eigenvalues --  -20.09143 -20.09139 -20.06778 -20.06778  -0.87700
  Beta  occ. eigenvalues --   -0.85833  -0.53046  -0.44793  -0.13146  -0.04763
  Beta  occ. eigenvalues --   -0.02455  -0.00881   0.02167   0.06037   0.24600
  Beta virt. eigenvalues --    0.53651   0.58812   0.63841   0.86583   0.93025
  Beta virt. eigenvalues --    1.20698   1.21220   1.24292   1.25145   1.25232
  Beta virt. eigenvalues --    1.29990   1.31447   1.35198   1.40577   1.41340

 Mulliken charges and spin densities:
               1          2
     1  O   -0.354538   0.914085
     2  O   -0.645462   1.085915
     3  O   -0.645462   1.085915
     4  O   -0.354538   0.914085
 Sum of Mulliken charges =  -2.00000   4.00000

 Dipole moment (field-independent basis, Debye):
    X=             -0.0000    Y=             -0.0000    Z=              0.0000  Tot=              0.0000
 Quadrupole moment (field-independent basis, Debye-Ang):
   XX=            -25.2903   YY=            -23.9668   ZZ=            -66.7050
   XY=             -0.0000   XZ=              0.0000   YZ=             -0.0000

 Normal termination of Gaussian 16 at Sat Jan  7 03:27:36 2023.
