 Gaussian 16, Revision A.03,
 Gaussian 16:  ES64L-G16RevA.03 25-Dec-2016

 ------------------------------------------------
 #p CCSD(T,MaxCyc=300)/cc-pVTZ Guess=Read SCF=XQC
 ------------------------------------------------

 ---------
 O2_O2_279
 ---------
 Symbolic Z-matrix:
 Charge = -2 Multiplicity = 5

                         Standard orientation:
 ---------------------------------------------------------------------
 Center     Atomic      Atomic             Coordinates (Angstroms)
 Number     Number       Type             X           Y           Z
 ---------------------------------------------------------------------
      1          8           0        0.000000    0.000000    2.767698
      2          8           0        0.000000    0.000000    4.120078
      3          8           0        0.000000    0.000000   -4.120078
      4          8           0        0.000000    0.000000   -2.767698
 ---------------------------------------------------------------------

 SCF Done:  E(UHF) =  -298.771155501     A.U. after   15 cycles
 E2 =    -0.1273365244D+01 EUMP2 =    -0.30004452074481D+03
 CCSD(T)
 CCSD(T)= -0.29995252180D+03

 Unable to determine electronic state:  an orbital has unidentified symmetry.
 Alpha  occ. eigenvalues --  -20.25213 -20.25213 -20.22364 -20.22363  -1.12922
 Alpha  occ. eigenvalues --   -1.12922  -0.76908  -0.76900  -0.31431  -0.31431
 Alpha  occ. eigenvalues --   -0.28774  -0.28773  -0.27072  -0.26853  -0.10965
 Alpha  occ. eigenvalues --   -0.10965  -0.08417  -0.08417   0.42510
 Alpha virt. eigenvalues --    0.50673   1.05785   1.06023   1.09375   1.09382
 Alpha virt. eigenvalues --    1.10732   1.10738   1.13856   1.14215   1.18049
 Alpha virt. eigenvalues --    1.18071   1.19242   1.19265   1.32294   1.32296

  Beta  occ. eigenvalues --  -20.19376 -20.19376 -20.17192 -20.17192  -0.96548
  Beta  occ. eigenvalues --   -0.96547  -0.57697  -0.57671  -0.17558  -0.17552
  Beta  occ. eigenvalues --   -0.11791  -0.11617  -0.04608  -0.04607   0.24078
  Beta virt. eigenvalues --    0.31791   0.51974   0.51975   0.76599   0.76722
  Beta virt. eigenvalues --    1.14509   1.14658   1.16935   1.16939   1.17568
  Beta virt. eigenvalues --    1.17676   1.19015   1.19016   1.26075   1.26082

 Mulliken charges and spin densities:
               1          2
     1  O   -0.408979   1.093057
     2  O   -0.591021   0.906943
     3  O   -0.591021   0.906943
     4  O   -0.408979   1.093057
 Sum of Mulliken charges =  -2.00000   4.00000

 Dipole moment (field-independent basis, Debye):
    X=             -0.0000    Y=              0.0000    Z=              0.0000  Tot=              0.0000
 Quadrupole moment (field-independent basis, Debye-Ang):
   XX=            -25.1297   YY=            -23.9652   ZZ=           -155.7327
   XY=             -0.0000   XZ=              0.0000   YZ=             -0.0000

 Normal termination of Gaussian 16 at Sat Jan  7 09:44:15 2023.
