 Gaussian 16, Revision A.03,
 Gaussian 16:  ES64L-G16RevA.03 25-Dec-2016

 ------------------------------------------------
 #p CCSD(T,MaxCyc=300)/cc-pVTZ Guess=Read SCF=XQC
 ------------------------------------------------

 ---------
 O2_O2_111
 ---------
 Symbolic Z-matrix:
 Charge = -2 Multiplicity = 5

                         Standard orientation:
 ---------------------------------------------------------------------
 Center     Atomic      Atomic             Coordinates (Angstroms)
 Number     Number       Type             X           Y           Z
 ---------------------------------------------------------------------
      1          8           0        0.000000    0.000000    1.578377
      2          8           0        0.000000    0.000000    2.930757
      3          8           0        0.000000    0.000000   -2.930757
      4          8           0        0.000000    0.000000   -1.578377
 ---------------------------------------------------------------------

 SCF Done:  E(UHF) =  -298.783345832     A.U. after   16 cycles
 E2 =    -0.1093039665D+01 EUMP2 =    -0.29987638549652D+03
 CCSD(T)
 CCSD(T)= -0.29989735600D+03

 Unable to determine electronic state:  an orbital has unidentified symmetry.
 Alpha  occ. eigenvalues --  -20.23053 -20.23052 -20.18075 -20.18075  -1.09281
 Alpha  occ. eigenvalues --   -1.09228  -0.73041  -0.72681  -0.27940  -0.27805
 Alpha  occ. eigenvalues --   -0.25402  -0.25264  -0.23168  -0.21070  -0.07393
 Alpha  occ. eigenvalues --   -0.07193  -0.04741  -0.04518   0.41749
 Alpha virt. eigenvalues --    0.62312   1.04687   1.11334   1.11797   1.13161
 Alpha virt. eigenvalues --    1.13490   1.14030   1.15289   1.19722   1.20913
 Alpha virt. eigenvalues --    1.25318   1.26643   1.35771   1.36096   1.49813

  Beta  occ. eigenvalues --  -20.17329 -20.17328 -20.13063 -20.13063  -0.93328
  Beta  occ. eigenvalues --   -0.93249  -0.54242  -0.53673  -0.14449  -0.13243
  Beta  occ. eigenvalues --   -0.08464  -0.07667  -0.00918  -0.00755   0.25021
  Beta virt. eigenvalues --    0.38495   0.55289   0.56227   0.78214   0.84798
  Beta virt. eigenvalues --    1.12601   1.18286   1.19567   1.19700   1.21213
  Beta virt. eigenvalues --    1.21874   1.23213   1.27717   1.30606   1.33436

 Mulliken charges and spin densities:
               1          2
     1  O   -0.364169   1.112933
     2  O   -0.635831   0.887067
     3  O   -0.635831   0.887067
     4  O   -0.364169   1.112933
 Sum of Mulliken charges =  -2.00000   4.00000

 Dipole moment (field-independent basis, Debye):
    X=             -0.0000    Y=              0.0000    Z=             -0.0000  Tot=              0.0000
 Quadrupole moment (field-independent basis, Debye-Ang):
   XX=            -25.1953   YY=            -24.0304   ZZ=            -88.9038
   XY=             -0.0000   XZ=              0.0000   YZ=             -0.0000

 Normal termination of Gaussian 16 at Sat Jan  7 05:26:24 2023.
