 Gaussian 16, Revision A.03,
 Gaussian 16:  ES64L-G16RevA.03 25-Dec-2016

 ------------------------------------------------
 #p CCSD(T,MaxCyc=300)/cc-pVTZ Guess=Read SCF=XQC
 ------------------------------------------------

 --------
 O2_O2_88
 --------
 Symbolic Z-matrix:
 Charge = -2 Multiplicity = 5

                         Standard orientation:
 ---------------------------------------------------------------------
 Center     Atomic      Atomic             Coordinates (Angstroms)
 Number     Number       Type             X           Y           Z
 ---------------------------------------------------------------------
      1          8           0        0.000000    0.000000    1.415553
      2          8           0        0.000000    0.000000    2.767933
      3          8           0        0.000000    0.000000   -2.767933
      4          8           0        0.000000    0.000000   -1.415553
 ---------------------------------------------------------------------

 SCF Done:  E(UHF) =  -298.781866513     A.U. after   14 cycles
 E2 =    -0.1076761368D+01 EUMP2 =    -0.29985862788081D+03
 CCSD(T)
 CCSD(T)= -0.29988610130D+03

 Unable to determine electronic state:  an orbital has unidentified symmetry.
 Alpha  occ. eigenvalues --  -20.21206 -20.21205 -20.17034 -20.17034  -1.08111
 Alpha  occ. eigenvalues --   -1.07992  -0.72072  -0.71350  -0.26526  -0.26271
 Alpha  occ. eigenvalues --   -0.24225  -0.23938  -0.22672  -0.19422  -0.06430
 Alpha  occ. eigenvalues --   -0.05989  -0.03586  -0.03151   0.41831
 Alpha virt. eigenvalues --    0.64389   1.10850   1.11297   1.12233   1.13351
 Alpha virt. eigenvalues --    1.13507   1.15097   1.16591   1.19534   1.21015
 Alpha virt. eigenvalues --    1.28981   1.30111   1.36694   1.37203   1.63756

  Beta  occ. eigenvalues --  -20.15472 -20.15470 -20.11849 -20.11849  -0.91862
  Beta  occ. eigenvalues --   -0.91683  -0.53132  -0.52006  -0.13505  -0.11249
  Beta  occ. eigenvalues --   -0.07468  -0.06481   0.00459   0.00865   0.25421
  Beta virt. eigenvalues --    0.41518   0.56118   0.57630   0.80434   0.86649
  Beta virt. eigenvalues --    1.17205   1.18497   1.20453   1.20905   1.22169
  Beta virt. eigenvalues --    1.22273   1.24878   1.27656   1.30925   1.37244

 Mulliken charges and spin densities:
               1          2
     1  O   -0.374296   1.062575
     2  O   -0.625704   0.937425
     3  O   -0.625704   0.937425
     4  O   -0.374296   1.062575
 Sum of Mulliken charges =  -2.00000   4.00000

 Dipole moment (field-independent basis, Debye):
    X=             -0.0000    Y=             -0.0000    Z=              0.0000  Tot=              0.0000
 Quadrupole moment (field-independent basis, Debye-Ang):
   XX=            -25.2217   YY=            -24.0365   ZZ=            -81.4610
   XY=             -0.0000   XZ=              0.0000   YZ=             -0.0000

 Normal termination of Gaussian 16 at Sat Jan  7 04:54:39 2023.
