 Gaussian 16, Revision A.03,
 Gaussian 16:  ES64L-G16RevA.03 25-Dec-2016

 ------------------------------------------------
 #p CCSD(T,MaxCyc=300)/cc-pVTZ Guess=Read SCF=XQC
 ------------------------------------------------

 --------
 O2_O2_48
 --------
 Symbolic Z-matrix:
 Charge = -2 Multiplicity = 5

                         Standard orientation:
 ---------------------------------------------------------------------
 Center     Atomic      Atomic             Coordinates (Angstroms)
 Number     Number       Type             X           Y           Z
 ---------------------------------------------------------------------
      1          8           0        0.000000    0.000000    1.132382
      2          8           0        0.000000    0.000000    2.484762
      3          8           0        0.000000    0.000000   -2.484762
      4          8           0        0.000000    0.000000   -1.132382
 ---------------------------------------------------------------------

 SCF Done:  E(UHF) =  -298.777889957     A.U. after   13 cycles
 E2 =    -0.1039809834D+01 EUMP2 =    -0.29981769979088D+03
 CCSD(T)
 CCSD(T)= -0.29985894091D+03

 Unable to determine electronic state:  an orbital has unidentified symmetry.
 Alpha  occ. eigenvalues --  -20.17485 -20.17481 -20.14452 -20.14452  -1.06030
 Alpha  occ. eigenvalues --   -1.05491  -0.70788  -0.68162  -0.24184  -0.23379
 Alpha  occ. eigenvalues --   -0.22717  -0.22112  -0.21072  -0.15204  -0.04436
 Alpha  occ. eigenvalues --   -0.02789  -0.01518  -0.00126   0.41942
 Alpha virt. eigenvalues --    0.69135   1.10215   1.13065   1.13675   1.14386
 Alpha virt. eigenvalues --    1.16898   1.18877   1.20260   1.22239   1.32430
 Alpha virt. eigenvalues --    1.36500   1.37208   1.38096   1.39256   1.83368

  Beta  occ. eigenvalues --  -20.11702 -20.11699 -20.08997 -20.08997  -0.89067
  Beta  occ. eigenvalues --   -0.88305  -0.52065  -0.48108  -0.12720  -0.06039
  Beta  occ. eigenvalues --   -0.05737  -0.04146   0.02080   0.03795   0.25530
  Beta virt. eigenvalues --    0.48402   0.57799   0.61113   0.84423   0.90364
  Beta virt. eigenvalues --    1.19697   1.20354   1.22504   1.23330   1.23996
  Beta virt. eigenvalues --    1.27985   1.28859   1.32886   1.36284   1.39902

 Mulliken charges and spin densities:
               1          2
     1  O   -0.367786   0.974682
     2  O   -0.632214   1.025318
     3  O   -0.632214   1.025318
     4  O   -0.367786   0.974682
 Sum of Mulliken charges =  -2.00000   4.00000

 Dipole moment (field-independent basis, Debye):
    X=             -0.0000    Y=             -0.0000    Z=              0.0000  Tot=              0.0000
 Quadrupole moment (field-independent basis, Debye-Ang):
   XX=            -25.2908   YY=            -24.0214   ZZ=            -71.3729
   XY=             -0.0000   XZ=              0.0000   YZ=             -0.0000

 Normal termination of Gaussian 16 at Sat Jan  7 03:59:31 2023.
