 Gaussian 16, Revision A.03,
 Gaussian 16:  ES64L-G16RevA.03 25-Dec-2016

 ------------------------------------------------
 #p CCSD(T,MaxCyc=300)/cc-pVTZ Guess=Read SCF=XQC
 ------------------------------------------------

 ---------
 O2_O2_264
 ---------
 Symbolic Z-matrix:
 Charge = -2 Multiplicity = 5

                         Standard orientation:
 ---------------------------------------------------------------------
 Center     Atomic      Atomic             Coordinates (Angstroms)
 Number     Number       Type             X           Y           Z
 ---------------------------------------------------------------------
      1          8           0        0.000000    0.000000    2.661509
      2          8           0        0.000000    0.000000    4.013889
      3          8           0        0.000000    0.000000   -4.013889
      4          8           0        0.000000    0.000000   -2.661509
 ---------------------------------------------------------------------

 SCF Done:  E(UHF) =  -298.770218904     A.U. after   15 cycles
 E2 =    -0.1260466129D+01 EUMP2 =    -0.30003068503285D+03
 CCSD(T)
 CCSD(T)= -0.29994912191D+03

 Unable to determine electronic state:  an orbital has unidentified symmetry.
 Alpha  occ. eigenvalues --  -20.25019 -20.25019 -20.22074 -20.22074  -1.12681
 Alpha  occ. eigenvalues --   -1.12680  -0.76655  -0.76645  -0.31198  -0.31197
 Alpha  occ. eigenvalues --   -0.28535  -0.28535  -0.26823  -0.26578  -0.10711
 Alpha  occ. eigenvalues --   -0.10710  -0.08168  -0.08167   0.42612
 Alpha virt. eigenvalues --    0.51123   1.05967   1.06410   1.09614   1.09626
 Alpha virt. eigenvalues --    1.10971   1.10981   1.14065   1.14571   1.18293
 Alpha virt. eigenvalues --    1.18325   1.19486   1.19520   1.32531   1.32535

  Beta  occ. eigenvalues --  -20.19173 -20.19173 -20.16917 -20.16917  -0.96311
  Beta  occ. eigenvalues --   -0.96308  -0.57453  -0.57423  -0.17312  -0.17300
  Beta  occ. eigenvalues --   -0.11555  -0.11363  -0.04377  -0.04376   0.24190
  Beta virt. eigenvalues --    0.32163   0.52227   0.52230   0.76811   0.77052
  Beta virt. eigenvalues --    1.14702   1.14987   1.17176   1.17183   1.17795
  Beta virt. eigenvalues --    1.18024   1.19249   1.19252   1.26318   1.26333

 Mulliken charges and spin densities:
               1          2
     1  O   -0.405469   1.095814
     2  O   -0.594531   0.904186
     3  O   -0.594531   0.904186
     4  O   -0.405469   1.095814
 Sum of Mulliken charges =  -2.00000   4.00000

 Dipole moment (field-independent basis, Debye):
    X=             -0.0000    Y=              0.0000    Z=              0.0000  Tot=              0.0000
 Quadrupole moment (field-independent basis, Debye-Ang):
   XX=            -25.1311   YY=            -23.9663   ZZ=           -148.8784
   XY=             -0.0000   XZ=              0.0000   YZ=             -0.0000

 Normal termination of Gaussian 16 at Sat Jan  7 09:20:38 2023.
