 Gaussian 16, Revision A.03,
 Gaussian 16:  ES64L-G16RevA.03 25-Dec-2016

 ------------------------------------------------
 #p CCSD(T,MaxCyc=300)/cc-pVTZ Guess=Read SCF=XQC
 ------------------------------------------------

 ---------
 O2_O2_118
 ---------
 Symbolic Z-matrix:
 Charge = -2 Multiplicity = 5

                         Standard orientation:
 ---------------------------------------------------------------------
 Center     Atomic      Atomic             Coordinates (Angstroms)
 Number     Number       Type             X           Y           Z
 ---------------------------------------------------------------------
      1          8           0        0.000000    0.000000    1.627932
      2          8           0        0.000000    0.000000    2.980312
      3          8           0        0.000000    0.000000   -2.980312
      4          8           0        0.000000    0.000000   -1.627932
 ---------------------------------------------------------------------

 SCF Done:  E(UHF) =  -298.783265132     A.U. after   16 cycles
 E2 =    -0.1097787362D+01 EUMP2 =    -0.29988105249324D+03
 CCSD(T)
 CCSD(T)= -0.29990045658D+03

 Unable to determine electronic state:  an orbital has unidentified symmetry.
 Alpha  occ. eigenvalues --  -20.23408 -20.23407 -20.18382 -20.18382  -1.09581
 Alpha  occ. eigenvalues --   -1.09540  -0.73309  -0.73015  -0.28291  -0.28181
 Alpha  occ. eigenvalues --   -0.25690  -0.25580  -0.23345  -0.21501  -0.07637
 Alpha  occ. eigenvalues --   -0.07478  -0.05043  -0.04860   0.41786
 Alpha virt. eigenvalues --    0.61660   1.03565   1.11404   1.11710   1.13108
 Alpha virt. eigenvalues --    1.13453   1.13680   1.14915   1.19770   1.20920
 Alpha virt. eigenvalues --    1.24451   1.25790   1.35513   1.35795   1.45797

  Beta  occ. eigenvalues --  -20.17693 -20.17692 -20.13403 -20.13403  -0.93677
  Beta  occ. eigenvalues --   -0.93615  -0.54546  -0.54080  -0.14707  -0.13708
  Beta  occ. eigenvalues --   -0.08756  -0.08017  -0.01314  -0.01188   0.24933
  Beta virt. eigenvalues --    0.37812   0.55087   0.55882   0.77675   0.84294
  Beta virt. eigenvalues --    1.11754   1.18212   1.19348   1.19532   1.20906
  Beta virt. eigenvalues --    1.21720   1.22800   1.27750   1.30604   1.32522

 Mulliken charges and spin densities:
               1          2
     1  O   -0.363795   1.120978
     2  O   -0.636205   0.879022
     3  O   -0.636205   0.879022
     4  O   -0.363795   1.120978
 Sum of Mulliken charges =  -2.00000   4.00000

 Dipole moment (field-independent basis, Debye):
    X=             -0.0000    Y=              0.0000    Z=             -0.0000  Tot=              0.0000
 Quadrupole moment (field-independent basis, Debye-Ang):
   XX=            -25.1887   YY=            -24.0255   ZZ=            -91.2410
   XY=             -0.0000   XZ=              0.0000   YZ=             -0.0000

 Normal termination of Gaussian 16 at Sat Jan  7 05:36:42 2023.
