 Gaussian 16, Revision A.03,
 Gaussian 16:  ES64L-G16RevA.03 25-Dec-2016

 ------------------------------------------------
 #p CCSD(T,MaxCyc=300)/cc-pVTZ Guess=Read SCF=XQC
 ------------------------------------------------

 ---------
 O2_O2_234
 ---------
 Symbolic Z-matrix:
 Charge = -2 Multiplicity = 5

                         Standard orientation:
 ---------------------------------------------------------------------
 Center     Atomic      Atomic             Coordinates (Angstroms)
 Number     Number       Type             X           Y           Z
 ---------------------------------------------------------------------
      1          8           0        0.000000    0.000000    2.449130
      2          8           0        0.000000    0.000000    3.801510
      3          8           0        0.000000    0.000000   -3.801510
      4          8           0        0.000000    0.000000   -2.449130
 ---------------------------------------------------------------------

 SCF Done:  E(UHF) =  -298.768918415     A.U. after   10 cycles
 E2 =    -0.1232344392D+01 EUMP2 =    -0.30000126280743D+03
 CCSD(T)
 CCSD(T)= -0.29994149573D+03

 Unable to determine electronic state:  an orbital has unidentified symmetry.
 Alpha  occ. eigenvalues --  -20.24641 -20.24640 -20.21468 -20.21468  -1.12171
 Alpha  occ. eigenvalues --   -1.12170  -0.76115  -0.76099  -0.30710  -0.30708
 Alpha  occ. eigenvalues --   -0.28037  -0.28035  -0.26278  -0.25954  -0.10175
 Alpha  occ. eigenvalues --   -0.10172  -0.07643  -0.07640   0.42782
 Alpha virt. eigenvalues --    0.52225   1.06107   1.07495   1.10118   1.10157
 Alpha virt. eigenvalues --    1.11475   1.11507   1.14350   1.15598   1.18803
 Alpha virt. eigenvalues --    1.18890   1.19996   1.20089   1.33038   1.33044

  Beta  occ. eigenvalues --  -20.18785 -20.18785 -20.16345 -20.16345  -0.95826
  Beta  occ. eigenvalues --   -0.95823  -0.56945  -0.56903  -0.16805  -0.16772
  Beta  occ. eigenvalues --   -0.11066  -0.10828  -0.03892  -0.03890   0.24403
  Beta virt. eigenvalues --    0.32964   0.52760   0.52773   0.77124   0.77907
  Beta virt. eigenvalues --    1.14901   1.15800   1.17680   1.17708   1.18148
  Beta virt. eigenvalues --    1.19069   1.19740   1.19756   1.26824   1.26888

 Mulliken charges and spin densities:
               1          2
     1  O   -0.397836   1.101633
     2  O   -0.602164   0.898367
     3  O   -0.602164   0.898367
     4  O   -0.397836   1.101633
 Sum of Mulliken charges =  -2.00000   4.00000

 Dipole moment (field-independent basis, Debye):
    X=             -0.0000    Y=              0.0000    Z=             -0.0000  Tot=              0.0000
 Quadrupole moment (field-independent basis, Debye-Ang):
   XX=            -25.1352   YY=            -23.9704   ZZ=           -135.7771
   XY=             -0.0000   XZ=              0.0000   YZ=             -0.0000

 Normal termination of Gaussian 16 at Sat Jan  7 08:32:17 2023.
