 Gaussian 16, Revision A.03,
 Gaussian 16:  ES64L-G16RevA.03 25-Dec-2016

 ------------------------------------------------
 #p CCSD(T,MaxCyc=300)/cc-pVTZ Guess=Read SCF=XQC
 ------------------------------------------------

 --------
 O2_O2_54
 --------
 Symbolic Z-matrix:
 Charge = -2 Multiplicity = 5

                         Standard orientation:
 ---------------------------------------------------------------------
 Center     Atomic      Atomic             Coordinates (Angstroms)
 Number     Number       Type             X           Y           Z
 ---------------------------------------------------------------------
      1          8           0        0.000000    0.000000    1.174857
      2          8           0        0.000000    0.000000    2.527237
      3          8           0        0.000000    0.000000   -2.527237
      4          8           0        0.000000    0.000000   -1.174857
 ---------------------------------------------------------------------

 SCF Done:  E(UHF) =  -298.778799701     A.U. after   13 cycles
 E2 =    -0.1046167370D+01 EUMP2 =    -0.29982496707109D+03
 CCSD(T)
 CCSD(T)= -0.29986419998D+03

 Unable to determine electronic state:  an orbital has unidentified symmetry.
 Alpha  occ. eigenvalues --  -20.18079 -20.18075 -20.14896 -20.14896  -1.06331
 Alpha  occ. eigenvalues --   -1.05904  -0.70892  -0.68741  -0.24517  -0.23842
 Alpha  occ. eigenvalues --   -0.22598  -0.22410  -0.21555  -0.16019  -0.04719
 Alpha  occ. eigenvalues --   -0.03365  -0.01814  -0.00646   0.41976
 Alpha virt. eigenvalues --    0.68198   1.10283   1.13199   1.13309   1.14061
 Alpha virt. eigenvalues --    1.16625   1.18532   1.20010   1.21935   1.28705
 Alpha virt. eigenvalues --    1.35379   1.36147   1.37918   1.38893   1.80986

  Beta  occ. eigenvalues --  -20.12296 -20.12293 -20.09481 -20.09481  -0.89471
  Beta  occ. eigenvalues --   -0.88861  -0.52071  -0.48803  -0.12717  -0.07028
  Beta  occ. eigenvalues --   -0.05993  -0.04529   0.01918   0.03308   0.25627
  Beta virt. eigenvalues --    0.47221   0.57551   0.60508   0.83857   0.89758
  Beta virt. eigenvalues --    1.19424   1.20206   1.22097   1.23032   1.23706
  Beta virt. eigenvalues --    1.27507   1.28473   1.32448   1.33235   1.39694

 Mulliken charges and spin densities:
               1          2
     1  O   -0.370568   0.988258
     2  O   -0.629432   1.011742
     3  O   -0.629432   1.011742
     4  O   -0.370568   0.988258
 Sum of Mulliken charges =  -2.00000   4.00000

 Dipole moment (field-independent basis, Debye):
    X=             -0.0000    Y=              0.0000    Z=              0.0000  Tot=              0.0000
 Quadrupole moment (field-independent basis, Debye-Ang):
   XX=            -25.2814   YY=            -24.0261   ZZ=            -72.7128
   XY=             -0.0000   XZ=              0.0000   YZ=             -0.0000

 Normal termination of Gaussian 16 at Sat Jan  7 04:07:50 2023.
