 Gaussian 16, Revision A.03,
 Gaussian 16:  ES64L-G16RevA.03 25-Dec-2016

 ------------------------------------------------
 #p CCSD(T,MaxCyc=300)/cc-pVTZ Guess=Read SCF=XQC
 ------------------------------------------------

 --------
 O2_O2_21
 --------
 Symbolic Z-matrix:
 Charge = -2 Multiplicity = 5

                         Standard orientation:
 ---------------------------------------------------------------------
 Center     Atomic      Atomic             Coordinates (Angstroms)
 Number     Number       Type             X           Y           Z
 ---------------------------------------------------------------------
      1          8           0        0.000000    0.000000    0.941240
      2          8           0        0.000000    0.000000    2.293621
      3          8           0        0.000000    0.000000   -2.293621
      4          8           0        0.000000    0.000000   -0.941240
 ---------------------------------------------------------------------

 SCF Done:  E(UHF) =  -298.762787837     A.U. after   13 cycles
 E2 =    -0.1007220829D+01 EUMP2 =    -0.29977000866694D+03
 CCSD(T)
 CCSD(T)= -0.29981997777D+03

 Unable to determine electronic state:  an orbital has unidentified symmetry.
 Alpha  occ. eigenvalues --  -20.14319 -20.14310 -20.11996 -20.11996  -1.04804
 Alpha  occ. eigenvalues --   -1.03235  -0.71263  -0.64673  -0.24026  -0.22770
 Alpha  occ. eigenvalues --   -0.20969  -0.20955  -0.18394  -0.10033  -0.03367
 Alpha  occ. eigenvalues --   -0.00269   0.00626   0.02838   0.41209
 Alpha virt. eigenvalues --    0.75603   1.09966   1.12410   1.16095   1.16876
 Alpha virt. eigenvalues --    1.18217   1.20548   1.22531   1.24473   1.38628
 Alpha virt. eigenvalues --    1.39325   1.41247   1.41689   1.49057   1.91941

  Beta  occ. eigenvalues --  -20.08645 -20.08641 -20.06307 -20.06306  -0.87531
  Beta  occ. eigenvalues --   -0.85328  -0.53455  -0.44082  -0.13277  -0.04601
  Beta  occ. eigenvalues --   -0.02109   0.00338   0.02041   0.06509   0.24319
  Beta virt. eigenvalues --    0.54699   0.59008   0.64396   0.86949   0.93570
  Beta virt. eigenvalues --    1.20724   1.21613   1.24603   1.25479   1.25536
  Beta virt. eigenvalues --    1.30382   1.32074   1.35712   1.40665   1.41434

 Mulliken charges and spin densities:
               1          2
     1  O   -0.351701   0.901745
     2  O   -0.648299   1.098255
     3  O   -0.648299   1.098255
     4  O   -0.351701   0.901745
 Sum of Mulliken charges =  -2.00000   4.00000

 Dipole moment (field-independent basis, Debye):
    X=             -0.0000    Y=             -0.0000    Z=             -0.0000  Tot=              0.0000
 Quadrupole moment (field-independent basis, Debye-Ang):
   XX=            -25.2805   YY=            -23.9477   ZZ=            -65.9888
   XY=             -0.0000   XZ=              0.0000   YZ=             -0.0000

 Normal termination of Gaussian 16 at Sat Jan  7 03:22:20 2023.
