 Gaussian 16, Revision A.03,
 Gaussian 16:  ES64L-G16RevA.03 25-Dec-2016

 ------------------------------------------------
 #p CCSD(T,MaxCyc=300)/cc-pVTZ Guess=Read SCF=XQC
 ------------------------------------------------

 ---------
 O2_O2_131
 ---------
 Symbolic Z-matrix:
 Charge = -2 Multiplicity = 5

                         Standard orientation:
 ---------------------------------------------------------------------
 Center     Atomic      Atomic             Coordinates (Angstroms)
 Number     Number       Type             X           Y           Z
 ---------------------------------------------------------------------
      1          8           0        0.000000    0.000000    1.719962
      2          8           0        0.000000    0.000000    3.072343
      3          8           0        0.000000    0.000000   -3.072343
      4          8           0        0.000000    0.000000   -1.719962
 ---------------------------------------------------------------------

 SCF Done:  E(UHF) =  -298.782131710     A.U. after   16 cycles
 E2 =    -0.1108376028D+01 EUMP2 =    -0.29989050773854D+03
 CCSD(T)
 CCSD(T)= -0.29990593285D+03

 Unable to determine electronic state:  an orbital has unidentified symmetry.
 Alpha  occ. eigenvalues --  -20.23836 -20.23835 -20.18933 -20.18933  -1.10059
 Alpha  occ. eigenvalues --   -1.10033  -0.73768  -0.73565  -0.28809  -0.28736
 Alpha  occ. eigenvalues --   -0.26138  -0.26065  -0.23701  -0.22242  -0.08060
 Alpha  occ. eigenvalues --   -0.07954  -0.05528  -0.05403   0.41932
 Alpha virt. eigenvalues --    0.60368   1.02424   1.11416   1.11577   1.12991
 Alpha virt. eigenvalues --    1.13048   1.13389   1.14281   1.19821   1.20947
 Alpha virt. eigenvalues --    1.23120   1.24447   1.35071   1.35303   1.38948

  Beta  occ. eigenvalues --  -20.18129 -20.18128 -20.13979 -20.13979  -0.94187
  Beta  occ. eigenvalues --   -0.94147  -0.55029  -0.54702  -0.15116  -0.14406
  Beta  occ. eigenvalues --   -0.09229  -0.08592  -0.01911  -0.01830   0.24802
  Beta virt. eigenvalues --    0.36798   0.54739   0.55308   0.76929   0.83421
  Beta virt. eigenvalues --    1.10934   1.18052   1.19004   1.19275   1.20346
  Beta virt. eigenvalues --    1.21437   1.22168   1.27793   1.30647   1.31128

 Mulliken charges and spin densities:
               1          2
     1  O   -0.366386   1.126959
     2  O   -0.633614   0.873041
     3  O   -0.633614   0.873041
     4  O   -0.366386   1.126959
 Sum of Mulliken charges =  -2.00000   4.00000

 Dipole moment (field-independent basis, Debye):
    X=             -0.0000    Y=              0.0000    Z=              0.0000  Tot=              0.0000
 Quadrupole moment (field-independent basis, Debye-Ang):
   XX=            -25.1782   YY=            -24.0172   ZZ=            -95.6639
   XY=             -0.0000   XZ=              0.0000   YZ=             -0.0000

 Normal termination of Gaussian 16 at Sat Jan  7 05:56:18 2023.
