 Gaussian 16, Revision A.03,
 Gaussian 16:  ES64L-G16RevA.03 25-Dec-2016

 ------------------------------------------------
 #p CCSD(T,MaxCyc=300)/cc-pVTZ Guess=Read SCF=XQC
 ------------------------------------------------

 ---------
 O2_O2_130
 ---------
 Symbolic Z-matrix:
 Charge = -2 Multiplicity = 5

                         Standard orientation:
 ---------------------------------------------------------------------
 Center     Atomic      Atomic             Coordinates (Angstroms)
 Number     Number       Type             X           Y           Z
 ---------------------------------------------------------------------
      1          8           0        0.000000    0.000000    1.712883
      2          8           0        0.000000    0.000000    3.065264
      3          8           0        0.000000    0.000000   -3.065264
      4          8           0        0.000000    0.000000   -1.712883
 ---------------------------------------------------------------------

 SCF Done:  E(UHF) =  -298.782264076     A.U. after   16 cycles
 E2 =    -0.1107456827D+01 EUMP2 =    -0.29988972090255D+03
 CCSD(T)
 CCSD(T)= -0.29990552277D+03

 Unable to determine electronic state:  an orbital has unidentified symmetry.
 Alpha  occ. eigenvalues --  -20.23812 -20.23811 -20.18893 -20.18893  -1.10026
 Alpha  occ. eigenvalues --   -1.09999  -0.73735  -0.73526  -0.28775  -0.28700
 Alpha  occ. eigenvalues --   -0.26107  -0.26032  -0.23673  -0.22188  -0.08029
 Alpha  occ. eigenvalues --   -0.07920  -0.05494  -0.05365   0.41918
 Alpha virt. eigenvalues --    0.60471   1.02473   1.11420   1.11587   1.13001
 Alpha virt. eigenvalues --    1.13095   1.13392   1.14327   1.19819   1.20945
 Alpha virt. eigenvalues --    1.23211   1.24540   1.35105   1.35338   1.39442

  Beta  occ. eigenvalues --  -20.18105 -20.18104 -20.13938 -20.13938  -0.94154
  Beta  occ. eigenvalues --   -0.94113  -0.54996  -0.54660  -0.15088  -0.14359
  Beta  occ. eigenvalues --   -0.09196  -0.08553  -0.01871  -0.01788   0.24811
  Beta virt. eigenvalues --    0.36866   0.54765   0.55349   0.76974   0.83485
  Beta virt. eigenvalues --    1.10965   1.18065   1.19027   1.19293   1.20388
  Beta virt. eigenvalues --    1.21458   1.22211   1.27791   1.30643   1.31222

 Mulliken charges and spin densities:
               1          2
     1  O   -0.366099   1.126806
     2  O   -0.633901   0.873194
     3  O   -0.633901   0.873194
     4  O   -0.366099   1.126806
 Sum of Mulliken charges =  -2.00000   4.00000

 Dipole moment (field-independent basis, Debye):
    X=             -0.0000    Y=              0.0000    Z=             -0.0000  Tot=              0.0000
 Quadrupole moment (field-independent basis, Debye-Ang):
   XX=            -25.1790   YY=            -24.0178   ZZ=            -95.3175
   XY=             -0.0000   XZ=              0.0000   YZ=             -0.0000

 Normal termination of Gaussian 16 at Sat Jan  7 05:54:47 2023.
