 Gaussian 16, Revision A.03,
 Gaussian 16:  ES64L-G16RevA.03 25-Dec-2016

 ------------------------------------------------
 #p CCSD(T,MaxCyc=300)/cc-pVTZ Guess=Read SCF=XQC
 ------------------------------------------------

 --------
 O2_O2_53
 --------
 Symbolic Z-matrix:
 Charge = -2 Multiplicity = 5

                         Standard orientation:
 ---------------------------------------------------------------------
 Center     Atomic      Atomic             Coordinates (Angstroms)
 Number     Number       Type             X           Y           Z
 ---------------------------------------------------------------------
      1          8           0        0.000000    0.000000    1.167778
      2          8           0        0.000000    0.000000    2.520158
      3          8           0        0.000000    0.000000   -2.520158
      4          8           0        0.000000    0.000000   -1.167778
 ---------------------------------------------------------------------

 SCF Done:  E(UHF) =  -298.778671395     A.U. after   13 cycles
 E2 =    -0.1045129461D+01 EUMP2 =    -0.29982380085619D+03
 CCSD(T)
 CCSD(T)= -0.29986337035D+03

 Unable to determine electronic state:  an orbital has unidentified symmetry.
 Alpha  occ. eigenvalues --  -20.17982 -20.17978 -20.14824 -20.14824  -1.06280
 Alpha  occ. eigenvalues --   -1.05837  -0.70872  -0.68648  -0.24461  -0.23766
 Alpha  occ. eigenvalues --   -0.22615  -0.22360  -0.21477  -0.15889  -0.04671
 Alpha  occ. eigenvalues --   -0.03272  -0.01764  -0.00562   0.41972
 Alpha virt. eigenvalues --    0.68346   1.10272   1.13178   1.13365   1.14109
 Alpha virt. eigenvalues --    1.16670   1.18589   1.20047   1.21982   1.29324
 Alpha virt. eigenvalues --    1.35567   1.36325   1.37949   1.38948   1.81395

  Beta  occ. eigenvalues --  -20.12198 -20.12196 -20.09402 -20.09402  -0.89403
  Beta  occ. eigenvalues --   -0.88770  -0.52065  -0.48691  -0.12714  -0.06870
  Beta  occ. eigenvalues --   -0.05950  -0.04467   0.01948   0.03387   0.25614
  Beta virt. eigenvalues --    0.47414   0.57592   0.60606   0.83952   0.89857
  Beta virt. eigenvalues --    1.19467   1.20233   1.22162   1.23076   1.23754
  Beta virt. eigenvalues --    1.27586   1.28531   1.32517   1.33743   1.39729

 Mulliken charges and spin densities:
               1          2
     1  O   -0.370133   0.986037
     2  O   -0.629867   1.013963
     3  O   -0.629867   1.013963
     4  O   -0.370133   0.986037
 Sum of Mulliken charges =  -2.00000   4.00000

 Dipole moment (field-independent basis, Debye):
    X=             -0.0000    Y=              0.0000    Z=             -0.0000  Tot=              0.0000
 Quadrupole moment (field-independent basis, Debye-Ang):
   XX=            -25.2831   YY=            -24.0255   ZZ=            -72.4861
   XY=             -0.0000   XZ=              0.0000   YZ=             -0.0000

 Normal termination of Gaussian 16 at Sat Jan  7 04:06:27 2023.
