 Gaussian 16, Revision A.03,
 Gaussian 16:  ES64L-G16RevA.03 25-Dec-2016

 ------------------------------------------------
 #p CCSD(T,MaxCyc=300)/cc-pVTZ Guess=Read SCF=XQC
 ------------------------------------------------

 --------
 O2_O2_49
 --------
 Symbolic Z-matrix:
 Charge = -2 Multiplicity = 5

                         Standard orientation:
 ---------------------------------------------------------------------
 Center     Atomic      Atomic             Coordinates (Angstroms)
 Number     Number       Type             X           Y           Z
 ---------------------------------------------------------------------
      1          8           0        0.000000    0.000000    1.139461
      2          8           0        0.000000    0.000000    2.491841
      3          8           0        0.000000    0.000000   -2.491841
      4          8           0        0.000000    0.000000   -1.139461
 ---------------------------------------------------------------------

 SCF Done:  E(UHF) =  -298.778068084     A.U. after   13 cycles
 E2 =    -0.1040891135D+01 EUMP2 =    -0.29981895921947D+03
 CCSD(T)
 CCSD(T)= -0.29985986755D+03

 Unable to determine electronic state:  an orbital has unidentified symmetry.
 Alpha  occ. eigenvalues --  -20.17586 -20.17582 -20.14528 -20.14528  -1.06080
 Alpha  occ. eigenvalues --   -1.05561  -0.70802  -0.68262  -0.24239  -0.23458
 Alpha  occ. eigenvalues --   -0.22694  -0.22161  -0.21155  -0.15346  -0.04482
 Alpha  occ. eigenvalues --   -0.02889  -0.01567  -0.00215   0.41950
 Alpha virt. eigenvalues --    0.68970   1.10226   1.13089   1.13609   1.14325
 Alpha virt. eigenvalues --    1.16852   1.18819   1.20213   1.22185   1.31811
 Alpha virt. eigenvalues --    1.36314   1.37032   1.38068   1.39188   1.82983

  Beta  occ. eigenvalues --  -20.11802 -20.11800 -20.09079 -20.09079  -0.89134
  Beta  occ. eigenvalues --   -0.88400  -0.52060  -0.48228  -0.12716  -0.06211
  Beta  occ. eigenvalues --   -0.05779  -0.04211   0.02056   0.03712   0.25550
  Beta virt. eigenvalues --    0.48200   0.57757   0.61009   0.84329   0.90261
  Beta virt. eigenvalues --    1.19649   1.20331   1.22434   1.23275   1.23947
  Beta virt. eigenvalues --    1.27905   1.28788   1.32808   1.35780   1.39868

 Mulliken charges and spin densities:
               1          2
     1  O   -0.368276   0.976989
     2  O   -0.631724   1.023011
     3  O   -0.631724   1.023011
     4  O   -0.368276   0.976989
 Sum of Mulliken charges =  -2.00000   4.00000

 Dipole moment (field-independent basis, Debye):
    X=             -0.0000    Y=             -0.0000    Z=             -0.0000  Tot=              0.0000
 Quadrupole moment (field-independent basis, Debye-Ang):
   XX=            -25.2894   YY=            -24.0224   ZZ=            -71.5929
   XY=             -0.0000   XZ=              0.0000   YZ=             -0.0000

 Normal termination of Gaussian 16 at Sat Jan  7 04:00:55 2023.
