 Gaussian 16, Revision A.03,
 Gaussian 16:  ES64L-G16RevA.03 25-Dec-2016

 ------------------------------------------------
 #p CCSD(T,MaxCyc=300)/cc-pVTZ Guess=Read SCF=XQC
 ------------------------------------------------

 ---------
 O2_O2_149
 ---------
 Symbolic Z-matrix:
 Charge = -2 Multiplicity = 5

                         Standard orientation:
 ---------------------------------------------------------------------
 Center     Atomic      Atomic             Coordinates (Angstroms)
 Number     Number       Type             X           Y           Z
 ---------------------------------------------------------------------
      1          8           0        0.000000    0.000000    1.847390
      2          8           0        0.000000    0.000000    3.199770
      3          8           0        0.000000    0.000000   -3.199770
      4          8           0        0.000000    0.000000   -1.847390
 ---------------------------------------------------------------------

 SCF Done:  E(UHF) =  -298.778777125     A.U. after   16 cycles
 E2 =    -0.1127892537D+01 EUMP2 =    -0.29990666966280D+03
 CCSD(T)
 CCSD(T)= -0.29991306621D+03

 Unable to determine electronic state:  an orbital has unidentified symmetry.
 Alpha  occ. eigenvalues --  -20.24097 -20.24096 -20.19569 -20.19569  -1.10572
 Alpha  occ. eigenvalues --   -1.10558  -0.74313  -0.74189  -0.29302  -0.29262
 Alpha  occ. eigenvalues --   -0.26598  -0.26558  -0.24224  -0.23158  -0.08552
 Alpha  occ. eigenvalues --   -0.08492  -0.06046  -0.05973   0.42236
 Alpha virt. eigenvalues --    0.58467   1.02400   1.11228   1.11391   1.12290
 Alpha virt. eigenvalues --    1.12788   1.13420   1.13554   1.19821   1.20962
 Alpha virt. eigenvalues --    1.21758   1.23045   1.30845   1.34676   1.34754

  Beta  occ. eigenvalues --  -20.18370 -20.18369 -20.14602 -20.14602  -0.94639
  Beta  occ. eigenvalues --   -0.94616  -0.55518  -0.55309  -0.15525  -0.15079
  Beta  occ. eigenvalues --   -0.09704  -0.09186  -0.02462  -0.02416   0.24699
  Beta virt. eigenvalues --    0.35780   0.54320   0.54659   0.76478   0.82295
  Beta virt. eigenvalues --    1.11107   1.17809   1.18659   1.18992   1.19672
  Beta virt. eigenvalues --    1.21098   1.21521   1.27797   1.29727   1.30691

 Mulliken charges and spin densities:
               1          2
     1  O   -0.372395   1.124700
     2  O   -0.627605   0.875300
     3  O   -0.627605   0.875300
     4  O   -0.372395   1.124700
 Sum of Mulliken charges =  -2.00000   4.00000

 Dipole moment (field-independent basis, Debye):
    X=             -0.0000    Y=              0.0000    Z=             -0.0000  Tot=              0.0000
 Quadrupole moment (field-independent basis, Debye-Ang):
   XX=            -25.1668   YY=            -24.0068   ZZ=           -102.1073
   XY=             -0.0000   XZ=              0.0000   YZ=             -0.0000

 Normal termination of Gaussian 16 at Sat Jan  7 06:22:57 2023.
