 Gaussian 16, Revision A.03,
 Gaussian 16:  ES64L-G16RevA.03 25-Dec-2016

 ------------------------------------------------
 #p CCSD(T,MaxCyc=300)/cc-pVTZ Guess=Read SCF=XQC
 ------------------------------------------------

 ---------
 O2_O2_233
 ---------
 Symbolic Z-matrix:
 Charge = -2 Multiplicity = 5

                         Standard orientation:
 ---------------------------------------------------------------------
 Center     Atomic      Atomic             Coordinates (Angstroms)
 Number     Number       Type             X           Y           Z
 ---------------------------------------------------------------------
      1          8           0        0.000000    0.000000    2.442051
      2          8           0        0.000000    0.000000    3.794431
      3          8           0        0.000000    0.000000   -3.794431
      4          8           0        0.000000    0.000000   -2.442051
 ---------------------------------------------------------------------

 SCF Done:  E(UHF) =  -298.768898020     A.U. after   10 cycles
 E2 =    -0.1231334355D+01 EUMP2 =    -0.30000023237484D+03
 CCSD(T)
 CCSD(T)= -0.29994122035D+03

 Unable to determine electronic state:  an orbital has unidentified symmetry.
 Alpha  occ. eigenvalues --  -20.24629 -20.24629 -20.21447 -20.21447  -1.12153
 Alpha  occ. eigenvalues --   -1.12152  -0.76096  -0.76080  -0.30693  -0.30691
 Alpha  occ. eigenvalues --   -0.28020  -0.28018  -0.26258  -0.25931  -0.10157
 Alpha  occ. eigenvalues --   -0.10154  -0.07625  -0.07622   0.42786
 Alpha virt. eigenvalues --    0.52268   1.06103   1.07541   1.10136   1.10176
 Alpha virt. eigenvalues --    1.11492   1.11526   1.14354   1.15645   1.18820
 Alpha virt. eigenvalues --    1.18910   1.20013   1.20110   1.33056   1.33061

  Beta  occ. eigenvalues --  -20.18773 -20.18773 -20.16325 -20.16325  -0.95810
  Beta  occ. eigenvalues --   -0.95807  -0.56928  -0.56886  -0.16788  -0.16754
  Beta  occ. eigenvalues --   -0.11049  -0.10810  -0.03875  -0.03873   0.24410
  Beta virt. eigenvalues --    0.32992   0.52778   0.52792   0.77130   0.77941
  Beta virt. eigenvalues --    1.14900   1.15830   1.17697   1.17727   1.18156
  Beta virt. eigenvalues --    1.19118   1.19757   1.19773   1.26841   1.26908

 Mulliken charges and spin densities:
               1          2
     1  O   -0.397570   1.101833
     2  O   -0.602430   0.898167
     3  O   -0.602430   0.898167
     4  O   -0.397570   1.101833
 Sum of Mulliken charges =  -2.00000   4.00000

 Dipole moment (field-independent basis, Debye):
    X=             -0.0000    Y=              0.0000    Z=              0.0000  Tot=              0.0000
 Quadrupole moment (field-independent basis, Debye-Ang):
   XX=            -25.1354   YY=            -23.9706   ZZ=           -135.3535
   XY=             -0.0000   XZ=              0.0000   YZ=             -0.0000

 1263\PMP3-0=-300.0085091\MP4SDQ=-299.597595\CCSD=-299.8184096\CCSD(T)=
 Normal termination of Gaussian 16 at Sat Jan  7 08:30:48 2023.
