 Gaussian 16, Revision A.03,
 Gaussian 16:  ES64L-G16RevA.03 25-Dec-2016

 ------------------------------------------------
 #p CCSD(T,MaxCyc=300)/cc-pVTZ Guess=Read SCF=XQC
 ------------------------------------------------

 --------
 O2_O2_67
 --------
 Symbolic Z-matrix:
 Charge = -2 Multiplicity = 5

                         Standard orientation:
 ---------------------------------------------------------------------
 Center     Atomic      Atomic             Coordinates (Angstroms)
 Number     Number       Type             X           Y           Z
 ---------------------------------------------------------------------
      1          8           0        0.000000    0.000000    1.266888
      2          8           0        0.000000    0.000000    2.619268
      3          8           0        0.000000    0.000000   -2.619268
      4          8           0        0.000000    0.000000   -1.266888
 ---------------------------------------------------------------------

 SCF Done:  E(UHF) =  -298.780045161     A.U. after   14 cycles
 E2 =    -0.1058884930D+01 EUMP2 =    -0.29983893009180D+03
 CCSD(T)
 CCSD(T)= -0.29987372738D+03

 Unable to determine electronic state:  an orbital has unidentified symmetry.
 Alpha  occ. eigenvalues --  -20.19294 -20.19292 -20.15787 -20.15787  -1.06997
 Alpha  occ. eigenvalues --   -1.06738  -0.71251  -0.69846  -0.25257  -0.24795
 Alpha  occ. eigenvalues --   -0.23081  -0.22520  -0.22495  -0.17516  -0.05363
 Alpha  occ. eigenvalues --   -0.04476  -0.02474  -0.01673   0.41969
 Alpha virt. eigenvalues --    0.66516   1.10452   1.12751   1.13401   1.13623
 Alpha virt. eigenvalues --    1.16038   1.17792   1.19666   1.21084   1.21438
 Alpha virt. eigenvalues --    1.32909   1.33809   1.37489   1.38237   1.75180

  Beta  occ. eigenvalues --  -20.13529 -20.13527 -20.10456 -20.10456  -0.90373
  Beta  occ. eigenvalues --   -0.89993  -0.52314  -0.50150  -0.12869  -0.08864
  Beta  occ. eigenvalues --   -0.06553  -0.05314   0.01453   0.02332   0.25679
  Beta virt. eigenvalues --    0.44870   0.57011   0.59307   0.82593   0.88515
  Beta virt. eigenvalues --    1.18951   1.19717   1.21352   1.22609   1.23099
  Beta virt. eigenvalues --    1.26495   1.27059   1.27940   1.31691   1.39204

 Mulliken charges and spin densities:
               1          2
     1  O   -0.374895   1.016233
     2  O   -0.625105   0.983767
     3  O   -0.625105   0.983767
     4  O   -0.374895   1.016233
 Sum of Mulliken charges =  -2.00000   4.00000

 Dipole moment (field-independent basis, Debye):
    X=             -0.0000    Y=              0.0000    Z=             -0.0000  Tot=              0.0000
 Quadrupole moment (field-independent basis, Debye-Ang):
   XX=            -25.2572   YY=            -24.0314   ZZ=            -75.7915
   XY=             -0.0000   XZ=              0.0000   YZ=             -0.0000

 Normal termination of Gaussian 16 at Sat Jan  7 04:25:50 2023.
