 Gaussian 16, Revision A.03,
 Gaussian 16:  ES64L-G16RevA.03 25-Dec-2016

 ------------------------------------------------
 #p CCSD(T,MaxCyc=300)/cc-pVTZ Guess=Read SCF=XQC
 ------------------------------------------------

 --------
 O2_O2_91
 --------
 Symbolic Z-matrix:
 Charge = -2 Multiplicity = 5

                         Standard orientation:
 ---------------------------------------------------------------------
 Center     Atomic      Atomic             Coordinates (Angstroms)
 Number     Number       Type             X           Y           Z
 ---------------------------------------------------------------------
      1          8           0        0.000000    0.000000    1.436791
      2          8           0        0.000000    0.000000    2.789171
      3          8           0        0.000000    0.000000   -2.789171
      4          8           0        0.000000    0.000000   -1.436791
 ---------------------------------------------------------------------

 SCF Done:  E(UHF) =  -298.782137677     A.U. after   14 cycles
 E2 =    -0.1079099973D+01 EUMP2 =    -0.29986123764912D+03
 CCSD(T)
 CCSD(T)= -0.29988768109D+03

 Unable to determine electronic state:  an orbital has unidentified symmetry.
 Alpha  occ. eigenvalues --  -20.21480 -20.21478 -20.17187 -20.17187  -1.08272
 Alpha  occ. eigenvalues --   -1.08165  -0.72201  -0.71543  -0.26716  -0.26481
 Alpha  occ. eigenvalues --   -0.24391  -0.24130  -0.22725  -0.19660  -0.06574
 Alpha  occ. eigenvalues --   -0.06176  -0.03746  -0.03347   0.41809
 Alpha virt. eigenvalues --    0.64114   1.10186   1.10919   1.12170   1.13325
 Alpha virt. eigenvalues --    1.13509   1.14964   1.16419   1.19548   1.20986
 Alpha virt. eigenvalues --    1.28448   1.29610   1.36573   1.37054   1.61956

  Beta  occ. eigenvalues --  -20.15747 -20.15745 -20.12025 -20.12025  -0.92072
  Beta  occ. eigenvalues --   -0.91910  -0.53274  -0.52247  -0.13624  -0.11546
  Beta  occ. eigenvalues --   -0.07598  -0.06638   0.00294   0.00655   0.25365
  Beta virt. eigenvalues --    0.41075   0.55994   0.57418   0.80123   0.86394
  Beta virt. eigenvalues --    1.16540   1.18460   1.20342   1.20580   1.22044
  Beta virt. eigenvalues --    1.22232   1.24647   1.27651   1.30853   1.36698

 Mulliken charges and spin densities:
               1          2
     1  O   -0.373157   1.069778
     2  O   -0.626843   0.930222
     3  O   -0.626843   0.930222
     4  O   -0.373157   1.069778
 Sum of Mulliken charges =  -2.00000   4.00000

 Dipole moment (field-independent basis, Debye):
    X=             -0.0000    Y=              0.0000    Z=              0.0000  Tot=              0.0000
 Quadrupole moment (field-independent basis, Debye-Ang):
   XX=            -25.2177   YY=            -24.0370   ZZ=            -82.3681
   XY=             -0.0000   XZ=              0.0000   YZ=             -0.0000

 Normal termination of Gaussian 16 at Sat Jan  7 04:58:46 2023.
