 Gaussian 16, Revision A.03,
 Gaussian 16:  ES64L-G16RevA.03 25-Dec-2016

 ------------------------------------------------
 #p CCSD(T,MaxCyc=300)/cc-pVTZ Guess=Read SCF=XQC
 ------------------------------------------------

 ---------
 O2_O2_215
 ---------
 Symbolic Z-matrix:
 Charge = -2 Multiplicity = 5

                         Standard orientation:
 ---------------------------------------------------------------------
 Center     Atomic      Atomic             Coordinates (Angstroms)
 Number     Number       Type             X           Y           Z
 ---------------------------------------------------------------------
      1          8           0        0.000000    0.000000    2.314623
      2          8           0        0.000000    0.000000    3.667003
      3          8           0        0.000000    0.000000   -3.667003
      4          8           0        0.000000    0.000000   -2.314623
 ---------------------------------------------------------------------

 SCF Done:  E(UHF) =  -298.768938790     A.U. after   12 cycles
 E2 =    -0.1212126901D+01 EUMP2 =    -0.29998106569125D+03
 CCSD(T)
 CCSD(T)= -0.29993600906D+03

 Unable to determine electronic state:  an orbital has unidentified symmetry.
 Alpha  occ. eigenvalues --  -20.24433 -20.24433 -20.21076 -20.21076  -1.11835
 Alpha  occ. eigenvalues --   -1.11834  -0.75752  -0.75729  -0.30397  -0.30394
 Alpha  occ. eigenvalues --   -0.27717  -0.27714  -0.25892  -0.25492  -0.09828
 Alpha  occ. eigenvalues --   -0.09822  -0.07302  -0.07295   0.42834
 Alpha virt. eigenvalues --    0.53133   1.05875   1.08452   1.10444   1.10528
 Alpha virt. eigenvalues --    1.11801   1.11871   1.14341   1.16734   1.19123
 Alpha virt. eigenvalues --    1.19302   1.20314   1.20508   1.33379   1.33382

  Beta  occ. eigenvalues --  -20.18583 -20.18582 -20.15979 -20.15979  -0.95531
  Beta  occ. eigenvalues --   -0.95527  -0.56624  -0.56569  -0.16492  -0.16428
  Beta  occ. eigenvalues --   -0.10757  -0.10482  -0.03580  -0.03575   0.24517
  Beta virt. eigenvalues --    0.33507   0.53106   0.53137   0.77164   0.78643
  Beta virt. eigenvalues --    1.14722   1.16387   1.18004   1.18068   1.18253
  Beta virt. eigenvalues --    1.20057   1.20094   1.20285   1.27139   1.27292

 Mulliken charges and spin densities:
               1          2
     1  O   -0.392658   1.105552
     2  O   -0.607342   0.894448
     3  O   -0.607342   0.894448
     4  O   -0.392658   1.105552
 Sum of Mulliken charges =  -2.00000   4.00000

 Dipole moment (field-independent basis, Debye):
    X=             -0.0000    Y=              0.0000    Z=             -0.0000  Tot=              0.0000
 Quadrupole moment (field-independent basis, Debye-Ang):
   XX=            -25.1392   YY=            -23.9751   ZZ=           -127.8597
   XY=             -0.0000   XZ=              0.0000   YZ=             -0.0000

 Normal termination of Gaussian 16 at Sat Jan  7 08:03:17 2023.
