 Gaussian 16, Revision A.03,
 Gaussian 16:  ES64L-G16RevA.03 25-Dec-2016

 ------------------------------------------------
 #p CCSD(T,MaxCyc=300)/cc-pVTZ Guess=Read SCF=XQC
 ------------------------------------------------

 --------
 O2_O2_33
 --------
 Symbolic Z-matrix:
 Charge = -2 Multiplicity = 5

                         Standard orientation:
 ---------------------------------------------------------------------
 Center     Atomic      Atomic             Coordinates (Angstroms)
 Number     Number       Type             X           Y           Z
 ---------------------------------------------------------------------
      1          8           0        0.000000    0.000000    1.026192
      2          8           0        0.000000    0.000000    2.378572
      3          8           0        0.000000    0.000000   -2.378572
      4          8           0        0.000000    0.000000   -1.026192
 ---------------------------------------------------------------------

 SCF Done:  E(UHF) =  -298.772885629     A.U. after   13 cycles
 E2 =    -0.1022532042D+01 EUMP2 =    -0.29979541767136D+03
 CCSD(T)
 CCSD(T)= -0.29984156090D+03

 Unable to determine electronic state:  an orbital has unidentified symmetry.
 Alpha  occ. eigenvalues --  -20.15844 -20.15838 -20.13206 -20.13206  -1.05306
 Alpha  occ. eigenvalues --   -1.04336  -0.70800  -0.66438  -0.23373  -0.23265
 Alpha  occ. eigenvalues --   -0.22120  -0.21413  -0.19707  -0.12693  -0.03784
 Alpha  occ. eigenvalues --   -0.01096  -0.00803   0.01364   0.41692
 Alpha virt. eigenvalues --    0.72153   1.10046   1.12689   1.14911   1.15595
 Alpha virt. eigenvalues --    1.17604   1.19770   1.21235   1.23270   1.38464
 Alpha virt. eigenvalues --    1.38731   1.39209   1.39769   1.43020   1.88595

  Beta  occ. eigenvalues --  -20.10093 -20.10089 -20.07633 -20.07633  -0.88123
  Beta  occ. eigenvalues --   -0.86769  -0.52476  -0.46084  -0.12929  -0.05098
  Beta  occ. eigenvalues --   -0.03094  -0.02985   0.02266   0.05174   0.25041
  Beta virt. eigenvalues --    0.51681   0.58441   0.62808   0.85833   0.92020
  Beta virt. eigenvalues --    1.20577   1.20609   1.23654   1.24407   1.24772
  Beta virt. eigenvalues --    1.29251   1.30336   1.34271   1.40371   1.40938

 Mulliken charges and spin densities:
               1          2
     1  O   -0.359551   0.937088
     2  O   -0.640449   1.062912
     3  O   -0.640449   1.062912
     4  O   -0.359551   0.937088
 Sum of Mulliken charges =  -2.00000   4.00000

 Dipole moment (field-independent basis, Debye):
    X=             -0.0000    Y=              0.0000    Z=             -0.0000  Tot=              0.0000
 Quadrupole moment (field-independent basis, Debye-Ang):
   XX=            -25.2997   YY=            -23.9949   ZZ=            -68.2349
   XY=             -0.0000   XZ=              0.0000   YZ=             -0.0000

 Normal termination of Gaussian 16 at Sat Jan  7 03:38:41 2023.
