 Gaussian 16, Revision A.03,
 Gaussian 16:  ES64L-G16RevA.03 25-Dec-2016

 ------------------------------------------------
 #p CCSD(T,MaxCyc=300)/cc-pVTZ Guess=Read SCF=XQC
 ------------------------------------------------

 ---------
 O2_O2_238
 ---------
 Symbolic Z-matrix:
 Charge = -2 Multiplicity = 5

                         Standard orientation:
 ---------------------------------------------------------------------
 Center     Atomic      Atomic             Coordinates (Angstroms)
 Number     Number       Type             X           Y           Z
 ---------------------------------------------------------------------
      1          8           0        0.000000    0.000000    2.477447
      2          8           0        0.000000    0.000000    3.829827
      3          8           0        0.000000    0.000000   -3.829827
      4          8           0        0.000000    0.000000   -2.477447
 ---------------------------------------------------------------------

 SCF Done:  E(UHF) =  -298.769019197     A.U. after   10 cycles
 E2 =    -0.1236330520D+01 EUMP2 =    -0.30000534971749D+03
 CCSD(T)
 CCSD(T)= -0.29994258449D+03

 Unable to determine electronic state:  an orbital has unidentified symmetry.
 Alpha  occ. eigenvalues --  -20.24689 -20.24689 -20.21550 -20.21550  -1.12240
 Alpha  occ. eigenvalues --   -1.12240  -0.76189  -0.76174  -0.30776  -0.30774
 Alpha  occ. eigenvalues --   -0.28104  -0.28103  -0.26355  -0.26044  -0.10248
 Alpha  occ. eigenvalues --   -0.10246  -0.07714  -0.07712   0.42764
 Alpha virt. eigenvalues --    0.52058   1.06116   1.07321   1.10050   1.10083
 Alpha virt. eigenvalues --    1.11406   1.11434   1.14329   1.15423   1.18735
 Alpha virt. eigenvalues --    1.18809   1.19927   1.20008   1.32968   1.32974

  Beta  occ. eigenvalues --  -20.18833 -20.18833 -20.16422 -20.16422  -0.95890
  Beta  occ. eigenvalues --   -0.95887  -0.57014  -0.56974  -0.16872  -0.16844
  Beta  occ. eigenvalues --   -0.11131  -0.10901  -0.03957  -0.03956   0.24376
  Beta virt. eigenvalues --    0.32853   0.52687   0.52699   0.77096   0.77773
  Beta virt. eigenvalues --    1.14899   1.15680   1.17612   1.17635   1.18113
  Beta virt. eigenvalues --    1.18885   1.19673   1.19686   1.26756   1.26809

 Mulliken charges and spin densities:
               1          2
     1  O   -0.398895   1.100837
     2  O   -0.601105   0.899163
     3  O   -0.601105   0.899163
     4  O   -0.398895   1.100837
 Sum of Mulliken charges =  -2.00000   4.00000

 Dipole moment (field-independent basis, Debye):
    X=             -0.0000    Y=              0.0000    Z=              0.0000  Tot=              0.0000
 Quadrupole moment (field-independent basis, Debye-Ang):
   XX=            -25.1345   YY=            -23.9697   ZZ=           -137.4797
   XY=             -0.0000   XZ=              0.0000   YZ=             -0.0000

 Normal termination of Gaussian 16 at Sat Jan  7 08:38:28 2023.
