 Gaussian 16, Revision A.03,
 Gaussian 16:  ES64L-G16RevA.03 25-Dec-2016

 ------------------------------------------------
 #p CCSD(T,MaxCyc=300)/cc-pVTZ Guess=Read SCF=XQC
 ------------------------------------------------

 ---------
 O2_O2_277
 ---------
 Symbolic Z-matrix:
 Charge = -2 Multiplicity = 5

                         Standard orientation:
 ---------------------------------------------------------------------
 Center     Atomic      Atomic             Coordinates (Angstroms)
 Number     Number       Type             X           Y           Z
 ---------------------------------------------------------------------
      1          8           0        0.000000    0.000000    2.753539
      2          8           0        0.000000    0.000000    4.105919
      3          8           0        0.000000    0.000000   -4.105919
      4          8           0        0.000000    0.000000   -2.753539
 ---------------------------------------------------------------------

 SCF Done:  E(UHF) =  -298.771025476     A.U. after   15 cycles
 E2 =    -0.1271676344D+01 EUMP2 =    -0.30004270181964D+03
 CCSD(T)
 CCSD(T)= -0.29995208288D+03

 Unable to determine electronic state:  an orbital has unidentified symmetry.
 Alpha  occ. eigenvalues --  -20.25187 -20.25187 -20.22326 -20.22326  -1.12890
 Alpha  occ. eigenvalues --   -1.12890  -0.76875  -0.76867  -0.31400  -0.31400
 Alpha  occ. eigenvalues --   -0.28742  -0.28742  -0.27039  -0.26818  -0.10932
 Alpha  occ. eigenvalues --   -0.10932  -0.08385  -0.08384   0.42524
 Alpha virt. eigenvalues --    0.50730   1.05812   1.06071   1.09406   1.09414
 Alpha virt. eigenvalues --    1.10764   1.10770   1.13885   1.14259   1.18081
 Alpha virt. eigenvalues --    1.18104   1.19274   1.19298   1.32325   1.32327

  Beta  occ. eigenvalues --  -20.19349 -20.19349 -20.17156 -20.17156  -0.96517
  Beta  occ. eigenvalues --   -0.96515  -0.57665  -0.57638  -0.17526  -0.17519
  Beta  occ. eigenvalues --   -0.11760  -0.11584  -0.04577  -0.04577   0.24093
  Beta virt. eigenvalues --    0.31840   0.52007   0.52009   0.76628   0.76763
  Beta virt. eigenvalues --    1.14536   1.14700   1.16967   1.16971   1.17599
  Beta virt. eigenvalues --    1.17719   1.19045   1.19047   1.26107   1.26115

 Mulliken charges and spin densities:
               1          2
     1  O   -0.408523   1.093418
     2  O   -0.591477   0.906582
     3  O   -0.591477   0.906582
     4  O   -0.408523   1.093418
 Sum of Mulliken charges =  -2.00000   4.00000

 Dipole moment (field-independent basis, Debye):
    X=             -0.0000    Y=             -0.0000    Z=             -0.0000  Tot=              0.0000
 Quadrupole moment (field-independent basis, Debye-Ang):
   XX=            -25.1298   YY=            -23.9654   ZZ=           -154.8066
   XY=             -0.0000   XZ=              0.0000   YZ=             -0.0000

 Normal termination of Gaussian 16 at Sat Jan  7 09:41:01 2023.
