 Gaussian 16, Revision A.03,
 Gaussian 16:  ES64L-G16RevA.03 25-Dec-2016

 ------------------------------------------------
 #p CCSD(T,MaxCyc=300)/cc-pVTZ Guess=Read SCF=XQC
 ------------------------------------------------

 ---------
 O2_O2_224
 ---------
 Symbolic Z-matrix:
 Charge = -2 Multiplicity = 5

                         Standard orientation:
 ---------------------------------------------------------------------
 Center     Atomic      Atomic             Coordinates (Angstroms)
 Number     Number       Type             X           Y           Z
 ---------------------------------------------------------------------
      1          8           0        0.000000    0.000000    2.378337
      2          8           0        0.000000    0.000000    3.730717
      3          8           0        0.000000    0.000000   -3.730717
      4          8           0        0.000000    0.000000   -2.378337
 ---------------------------------------------------------------------

 SCF Done:  E(UHF) =  -298.768813298     A.U. after   10 cycles
 E2 =    -0.1221982937D+01 EUMP2 =    -0.29999079623506D+03
 CCSD(T)
 CCSD(T)= -0.29993867664D+03

 Unable to determine electronic state:  an orbital has unidentified symmetry.
 Alpha  occ. eigenvalues --  -20.24527 -20.24526 -20.21262 -20.21262  -1.11995
 Alpha  occ. eigenvalues --   -1.11994  -0.75926  -0.75906  -0.30545  -0.30542
 Alpha  occ. eigenvalues --   -0.27868  -0.27866  -0.26079  -0.25719  -0.09992
 Alpha  occ. eigenvalues --   -0.09988  -0.07464  -0.07459   0.42817
 Alpha virt. eigenvalues --    0.52677   1.06028   1.07975   1.10290   1.10349
 Alpha virt. eigenvalues --    1.11647   1.11695   1.14369   1.16122   1.18974
 Alpha virt. eigenvalues --    1.19100   1.20165   1.20302   1.33216   1.33220

  Beta  occ. eigenvalues --  -20.18672 -20.18672 -20.16152 -20.16152  -0.95668
  Beta  occ. eigenvalues --   -0.95664  -0.56775  -0.56727  -0.16638  -0.16591
  Beta  occ. eigenvalues --   -0.10902  -0.10646  -0.03727  -0.03724   0.24466
  Beta virt. eigenvalues --    0.33247   0.52942   0.52963   0.77165   0.78273
  Beta virt. eigenvalues --    1.14852   1.16108   1.17851   1.17895   1.18215
  Beta virt. eigenvalues --    1.19627   1.19907   1.19932   1.26992   1.27094

 Mulliken charges and spin densities:
               1          2
     1  O   -0.395140   1.103661
     2  O   -0.604860   0.896339
     3  O   -0.604860   0.896339
     4  O   -0.395140   1.103661
 Sum of Mulliken charges =  -2.00000   4.00000

 Dipole moment (field-independent basis, Debye):
    X=             -0.0000    Y=              0.0000    Z=             -0.0000  Tot=              0.0000
 Quadrupole moment (field-independent basis, Debye-Ang):
   XX=            -25.1371   YY=            -23.9726   ZZ=           -131.5762
   XY=             -0.0000   XZ=              0.0000   YZ=             -0.0000

 Normal termination of Gaussian 16 at Sat Jan  7 08:17:21 2023.
