 Gaussian 16, Revision A.03,
 Gaussian 16:  ES64L-G16RevA.03 25-Dec-2016

 ------------------------------------------------
 #p CCSD(T,MaxCyc=300)/cc-pVTZ Guess=Read SCF=XQC
 ------------------------------------------------

 ---------
 O2_O2_187
 ---------
 Symbolic Z-matrix:
 Charge = -2 Multiplicity = 5

                         Standard orientation:
 ---------------------------------------------------------------------
 Center     Atomic      Atomic             Coordinates (Angstroms)
 Number     Number       Type             X           Y           Z
 ---------------------------------------------------------------------
      1          8           0        0.000000    0.000000    2.116403
      2          8           0        0.000000    0.000000    3.468783
      3          8           0        0.000000    0.000000   -3.468783
      4          8           0        0.000000    0.000000   -2.116403
 ---------------------------------------------------------------------

 SCF Done:  E(UHF) =  -298.771167004     A.U. after   12 cycles
 E2 =    -0.1178017750D+01 EUMP2 =    -0.29994918475330D+03
 CCSD(T)
 CCSD(T)= -0.29992693700D+03

 Unable to determine electronic state:  an orbital has unidentified symmetry.
 Alpha  occ. eigenvalues --  -20.24232 -20.24232 -20.20496 -20.20496  -1.11336
 Alpha  occ. eigenvalues --   -1.11333  -0.75194  -0.75148  -0.29954  -0.29943
 Alpha  occ. eigenvalues --   -0.27261  -0.27250  -0.25252  -0.24671  -0.09318
 Alpha  occ. eigenvalues --   -0.09301  -0.06802  -0.06782   0.42754
 Alpha virt. eigenvalues --    0.54934   1.04745   1.09984   1.10898   1.11148
 Alpha virt. eigenvalues --    1.12262   1.12471   1.13986   1.19533   1.20058
 Alpha virt. eigenvalues --    1.20131   1.20715   1.21282   1.33892   1.33908

  Beta  occ. eigenvalues --  -20.18417 -20.18417 -20.15449 -20.15449  -0.95150
  Beta  occ. eigenvalues --   -0.95142  -0.56174  -0.56083  -0.16077  -0.15920
  Beta  occ. eigenvalues --   -0.10328  -0.09977  -0.03135  -0.03122   0.24625
  Beta virt. eigenvalues --    0.34356   0.53608   0.53702   0.76892   0.80044
  Beta virt. eigenvalues --    1.13594   1.17142   1.18325   1.18453   1.18649
  Beta virt. eigenvalues --    1.20508   1.20623   1.23812   1.27537   1.28032

 Mulliken charges and spin densities:
               1          2
     1  O   -0.384624   1.112295
     2  O   -0.615376   0.887705
     3  O   -0.615376   0.887705
     4  O   -0.384624   1.112295
 Sum of Mulliken charges =  -2.00000   4.00000

 Dipole moment (field-independent basis, Debye):
    X=             -0.0000    Y=              0.0000    Z=             -0.0000  Tot=              0.0000
 Quadrupole moment (field-independent basis, Debye-Ang):
   XX=            -25.1482   YY=            -23.9860   ZZ=           -116.6311
   XY=             -0.0000   XZ=              0.0000   YZ=             -0.0000

 Normal termination of Gaussian 16 at Sat Jan  7 07:20:26 2023.
