 Gaussian 16, Revision A.03,
 Gaussian 16:  ES64L-G16RevA.03 25-Dec-2016

 ------------------------------------------------
 #p CCSD(T,MaxCyc=300)/cc-pVTZ Guess=Read SCF=XQC
 ------------------------------------------------

 --------
 O2_O2_42
 --------
 Symbolic Z-matrix:
 Charge = -2 Multiplicity = 5

                         Standard orientation:
 ---------------------------------------------------------------------
 Center     Atomic      Atomic             Coordinates (Angstroms)
 Number     Number       Type             X           Y           Z
 ---------------------------------------------------------------------
      1          8           0        0.000000    0.000000    1.089906
      2          8           0        0.000000    0.000000    2.442286
      3          8           0        0.000000    0.000000   -2.442286
      4          8           0        0.000000    0.000000   -1.089906
 ---------------------------------------------------------------------

 SCF Done:  E(UHF) =  -298.776505286     A.U. after   15 cycles
 E2 =    -0.1033138990D+01 EUMP2 =    -0.29980964427609D+03
 CCSD(T)
 CCSD(T)= -0.29985286560D+03

 Unable to determine electronic state:  an orbital has unidentified symmetry.
 Alpha  occ. eigenvalues --  -20.16860 -20.16855 -20.13981 -20.13981  -1.05734
 Alpha  occ. eigenvalues --   -1.05053  -0.70739  -0.67526  -0.23856  -0.22895
 Alpha  occ. eigenvalues --   -0.22890  -0.21823  -0.20557  -0.14290  -0.04164
 Alpha  occ. eigenvalues --   -0.02162  -0.01228   0.00432   0.41876
 Alpha virt. eigenvalues --    0.70210   1.10147   1.12917   1.14117   1.14802
 Alpha virt. eigenvalues --    1.17175   1.19227   1.20581   1.22600   1.35959
 Alpha virt. eigenvalues --    1.37601   1.38250   1.38259   1.39853   1.85584

  Beta  occ. eigenvalues --  -20.11082 -20.11079 -20.08481 -20.08481  -0.88675
  Beta  occ. eigenvalues --   -0.87720  -0.52146  -0.47352  -0.12770  -0.05481
  Beta  occ. eigenvalues --   -0.04931  -0.03744   0.02199   0.04315   0.25381
  Beta virt. eigenvalues --    0.49653   0.58050   0.61757   0.84986   0.90998
  Beta virt. eigenvalues --    1.20010   1.20471   1.22947   1.23704   1.24296
  Beta virt. eigenvalues --    1.28477   1.29356   1.33387   1.39062   1.40100

 Mulliken charges and spin densities:
               1          2
     1  O   -0.364664   0.960381
     2  O   -0.635336   1.039619
     3  O   -0.635336   1.039619
     4  O   -0.364664   0.960381
 Sum of Mulliken charges =  -2.00000   4.00000

 Dipole moment (field-independent basis, Debye):
    X=             -0.0000    Y=              0.0000    Z=              0.0000  Tot=              0.0000
 Quadrupole moment (field-independent basis, Debye-Ang):
   XX=            -25.2975   YY=            -24.0139   ZZ=            -70.0804
   XY=             -0.0000   XZ=              0.0000   YZ=             -0.0000

 Normal termination of Gaussian 16 at Sat Jan  7 03:51:10 2023.
