 Gaussian 16, Revision A.03,
 Gaussian 16:  ES64L-G16RevA.03 25-Dec-2016

 ------------------------------------------------
 #p CCSD(T,MaxCyc=300)/cc-pVTZ Guess=Read SCF=XQC
 ------------------------------------------------

 ---------
 O2_O2_252
 ---------
 Symbolic Z-matrix:
 Charge = -2 Multiplicity = 5

                         Standard orientation:
 ---------------------------------------------------------------------
 Center     Atomic      Atomic             Coordinates (Angstroms)
 Number     Number       Type             X           Y           Z
 ---------------------------------------------------------------------
      1          8           0        0.000000    0.000000    2.576557
      2          8           0        0.000000    0.000000    3.928937
      3          8           0        0.000000    0.000000   -3.928937
      4          8           0        0.000000    0.000000   -2.576557
 ---------------------------------------------------------------------

 SCF Done:  E(UHF) =  -298.769571195     A.U. after    9 cycles
 E2 =    -0.1249665953D+01 EUMP2 =    -0.30001923714846D+03
 CCSD(T)
 CCSD(T)= -0.29994621343D+03

 Unable to determine electronic state:  an orbital has unidentified symmetry.
 Alpha  occ. eigenvalues --  -20.24865 -20.24864 -20.21835 -20.21835  -1.12481
 Alpha  occ. eigenvalues --   -1.12480  -0.76444  -0.76432  -0.31005  -0.31004
 Alpha  occ. eigenvalues --   -0.28339  -0.28338  -0.26614  -0.26341  -0.10500
 Alpha  occ. eigenvalues --   -0.10499  -0.07962  -0.07960   0.42688
 Alpha virt. eigenvalues --    0.51526   1.06072   1.06786   1.09812   1.09831
 Alpha virt. eigenvalues --    1.11169   1.11185   1.14209   1.14915   1.18495
 Alpha virt. eigenvalues --    1.18541   1.19688   1.19737   1.32729   1.32734

  Beta  occ. eigenvalues --  -20.19013 -20.19013 -20.16691 -20.16691  -0.96117
  Beta  occ. eigenvalues --   -0.96114  -0.57252  -0.57218  -0.17110  -0.17092
  Beta  occ. eigenvalues --   -0.11361  -0.11153  -0.04186  -0.04185   0.24278
  Beta virt. eigenvalues --    0.32475   0.52436   0.52442   0.76961   0.77356
  Beta virt. eigenvalues --    1.14824   1.15286   1.17375   1.17387   1.17958
  Beta virt. eigenvalues --    1.18365   1.19442   1.19449   1.26519   1.26545

 Mulliken charges and spin densities:
               1          2
     1  O   -0.402503   1.098104
     2  O   -0.597497   0.901896
     3  O   -0.597497   0.901896
     4  O   -0.402503   1.098104
 Sum of Mulliken charges =  -2.00000   4.00000

 Dipole moment (field-independent basis, Debye):
    X=             -0.0000    Y=              0.0000    Z=             -0.0000  Tot=              0.0000
 Quadrupole moment (field-independent basis, Debye-Ang):
   XX=            -25.1325   YY=            -23.9676   ZZ=           -143.5441
   XY=             -0.0000   XZ=              0.0000   YZ=             -0.0000

 Normal termination of Gaussian 16 at Sat Jan  7 09:00:43 2023.
