 Gaussian 16, Revision A.03,
 Gaussian 16:  ES64L-G16RevA.03 25-Dec-2016

 ------------------------------------------------
 #p CCSD(T,MaxCyc=300)/cc-pVTZ Guess=Read SCF=XQC
 ------------------------------------------------

 ---------
 O2_O2_201
 ---------
 Symbolic Z-matrix:
 Charge = -2 Multiplicity = 5

                         Standard orientation:
 ---------------------------------------------------------------------
 Center     Atomic      Atomic             Coordinates (Angstroms)
 Number     Number       Type             X           Y           Z
 ---------------------------------------------------------------------
      1          8           0        0.000000    0.000000    2.215513
      2          8           0        0.000000    0.000000    3.567893
      3          8           0        0.000000    0.000000   -3.567893
      4          8           0        0.000000    0.000000   -2.215513
 ---------------------------------------------------------------------

 SCF Done:  E(UHF) =  -298.769662992     A.U. after   12 cycles
 E2 =    -0.1195714730D+01 EUMP2 =    -0.29996537772249D+03
 CCSD(T)
 CCSD(T)= -0.29993161478D+03

 Unable to determine electronic state:  an orbital has unidentified symmetry.
 Alpha  occ. eigenvalues --  -20.24314 -20.24314 -20.20787 -20.20787  -1.11586
 Alpha  occ. eigenvalues --   -1.11584  -0.75477  -0.75445  -0.30172  -0.30166
 Alpha  occ. eigenvalues --   -0.27486  -0.27480  -0.25583  -0.25106  -0.09572
 Alpha  occ. eigenvalues --   -0.09562  -0.07051  -0.07039   0.42823
 Alpha virt. eigenvalues --    0.53954   1.05443   1.09237   1.10678   1.10824
 Alpha virt. eigenvalues --    1.12037   1.12159   1.14207   1.18081   1.19342
 Alpha virt. eigenvalues --    1.19651   1.20530   1.20864   1.33635   1.33639

  Beta  occ. eigenvalues --  -20.18476 -20.18476 -20.15713 -20.15713  -0.95331
  Beta  occ. eigenvalues --   -0.95326  -0.56395  -0.56325  -0.16276  -0.16175
  Beta  occ. eigenvalues --   -0.10538  -0.10228  -0.03355  -0.03347   0.24581
  Beta virt. eigenvalues --    0.33923   0.53359   0.53413   0.77077   0.79300
  Beta virt. eigenvalues --    1.14308   1.16793   1.18235   1.18287   1.18348
  Beta virt. eigenvalues --    1.20287   1.20353   1.21718   1.27353   1.27633

 Mulliken charges and spin densities:
               1          2
     1  O   -0.388702   1.108703
     2  O   -0.611298   0.891297
     3  O   -0.611298   0.891297
     4  O   -0.388702   1.108703
 Sum of Mulliken charges =  -2.00000   4.00000

 Dipole moment (field-independent basis, Debye):
    X=             -0.0000    Y=              0.0000    Z=              0.0000  Tot=              0.0000
 Quadrupole moment (field-independent basis, Debye-Ang):
   XX=            -25.1432   YY=            -23.9799   ZZ=           -122.1873
   XY=             -0.0000   XZ=              0.0000   YZ=             -0.0000

 Normal termination of Gaussian 16 at Sat Jan  7 07:42:14 2023.
