 Gaussian 16, Revision A.03,
 Gaussian 16:  ES64L-G16RevA.03 25-Dec-2016

 ------------------------------------------------
 #p CCSD(T,MaxCyc=300)/cc-pVTZ Guess=Read SCF=XQC
 ------------------------------------------------

 ---------
 O2_O2_266
 ---------
 Symbolic Z-matrix:
 Charge = -2 Multiplicity = 5

                         Standard orientation:
 ---------------------------------------------------------------------
 Center     Atomic      Atomic             Coordinates (Angstroms)
 Number     Number       Type             X           Y           Z
 ---------------------------------------------------------------------
      1          8           0        0.000000    0.000000    2.675667
      2          8           0        0.000000    0.000000    4.028047
      3          8           0        0.000000    0.000000   -4.028047
      4          8           0        0.000000    0.000000   -2.675667
 ---------------------------------------------------------------------

 SCF Done:  E(UHF) =  -298.770337447     A.U. after    9 cycles
 E2 =    -0.1262219668D+01 EUMP2 =    -0.30003255711455D+03
 CCSD(T)
 CCSD(T)= -0.29994958971D+03

 Unable to determine electronic state:  an orbital has unidentified symmetry.
 Alpha  occ. eigenvalues --  -20.25045 -20.25045 -20.22113 -20.22113  -1.12714
 Alpha  occ. eigenvalues --   -1.12713  -0.76690  -0.76680  -0.31229  -0.31229
 Alpha  occ. eigenvalues --   -0.28568  -0.28567  -0.26857  -0.26616  -0.10745
 Alpha  occ. eigenvalues --   -0.10744  -0.08202  -0.08201   0.42599
 Alpha virt. eigenvalues --    0.51060   1.05945   1.06354   1.09582   1.09593
 Alpha virt. eigenvalues --    1.10939   1.10948   1.14039   1.14520   1.18260
 Alpha virt. eigenvalues --    1.18290   1.19453   1.19485   1.32499   1.32502

  Beta  occ. eigenvalues --  -20.19201 -20.19200 -20.16955 -20.16954  -0.96343
  Beta  occ. eigenvalues --   -0.96341  -0.57486  -0.57457  -0.17345  -0.17335
  Beta  occ. eigenvalues --   -0.11587  -0.11398  -0.04408  -0.04408   0.24175
  Beta virt. eigenvalues --    0.32113   0.52192   0.52196   0.76784   0.77005
  Beta virt. eigenvalues --    1.14678   1.14940   1.17143   1.17150   1.17765
  Beta virt. eigenvalues --    1.17973   1.19217   1.19220   1.26285   1.26298

 Mulliken charges and spin densities:
               1          2
     1  O   -0.405939   1.095454
     2  O   -0.594061   0.904546
     3  O   -0.594061   0.904546
     4  O   -0.405939   1.095454
 Sum of Mulliken charges =  -2.00000   4.00000

 Dipole moment (field-independent basis, Debye):
    X=             -0.0000    Y=              0.0000    Z=              0.0000  Tot=              0.0000
 Quadrupole moment (field-independent basis, Debye-Ang):
   XX=            -25.1309   YY=            -23.9662   ZZ=           -149.7811
   XY=             -0.0000   XZ=              0.0000   YZ=             -0.0000

 Normal termination of Gaussian 16 at Sat Jan  7 09:23:59 2023.
