 Gaussian 16, Revision A.03,
 Gaussian 16:  ES64L-G16RevA.03 25-Dec-2016

 ------------------------------------------------
 #p CCSD(T,MaxCyc=300)/cc-pVTZ Guess=Read SCF=XQC
 ------------------------------------------------

 -------
 O2_O2_3
 -------
 Symbolic Z-matrix:
 Charge = -2 Multiplicity = 5

                         Standard orientation:
 ---------------------------------------------------------------------
 Center     Atomic      Atomic             Coordinates (Angstroms)
 Number     Number       Type             X           Y           Z
 ---------------------------------------------------------------------
      1          8           0        0.000000    0.000000    0.813813
      2          8           0        0.000000    0.000000    2.166194
      3          8           0        0.000000    0.000000   -2.166194
      4          8           0        0.000000    0.000000   -0.813813
 ---------------------------------------------------------------------

 SCF Done:  E(UHF) =  -298.723491941     A.U. after   13 cycles
 E2 =    -0.9821574916D+00 EUMP2 =    -0.29970564943289D+03
 CCSD(T)
 CCSD(T)= -0.29976092351D+03

 Unable to determine electronic state:  an orbital has unidentified symmetry.
 Alpha  occ. eigenvalues --  -20.11791 -20.11774 -20.09568 -20.09567  -1.04587
 Alpha  occ. eigenvalues --   -1.01174  -0.73435  -0.61178  -0.25867  -0.22179
 Alpha  occ. eigenvalues --   -0.20850  -0.18911  -0.15946  -0.04557  -0.03148
 Alpha  occ. eigenvalues --    0.00412   0.04045   0.05736   0.39591
 Alpha virt. eigenvalues --    0.83610   1.10468   1.11879   1.17628   1.18718
 Alpha virt. eigenvalues --    1.19302   1.21907   1.25487   1.27094   1.38404
 Alpha virt. eigenvalues --    1.39114   1.43963   1.44238   1.55239   1.92851

  Beta  occ. eigenvalues --  -20.06330 -20.06320 -20.03688 -20.03688  -0.87674
  Beta  occ. eigenvalues --   -0.82705  -0.56627  -0.40253  -0.13929  -0.04074
  Beta  occ. eigenvalues --   -0.00257   0.00424   0.07787   0.09060   0.22396
  Beta virt. eigenvalues --    0.59948   0.60007   0.67239   0.88289   0.96547
  Beta virt. eigenvalues --    1.20414   1.24359   1.25816   1.26779   1.27126
  Beta virt. eigenvalues --    1.32370   1.35054   1.38350   1.40904   1.41328

 Mulliken charges and spin densities:
               1          2
     1  O   -0.331267   0.843910
     2  O   -0.668733   1.156090
     3  O   -0.668733   1.156090
     4  O   -0.331267   0.843910
 Sum of Mulliken charges =  -2.00000   4.00000

 Dipole moment (field-independent basis, Debye):
    X=             -0.0000    Y=             -0.0000    Z=              0.0000  Tot=              0.0000
 Quadrupole moment (field-independent basis, Debye-Ang):
   XX=            -25.1757   YY=            -23.8017   ZZ=            -63.3725
   XY=             -0.0000   XZ=              0.0000   YZ=             -0.0000

 Normal termination of Gaussian 16 at Sat Jan  7 02:58:27 2023.
