 Gaussian 16, Revision A.03,
 Gaussian 16:  ES64L-G16RevA.03 25-Dec-2016

 ------------------------------------------------
 #p CCSD(T,MaxCyc=300)/cc-pVTZ Guess=Read SCF=XQC
 ------------------------------------------------

 ---------
 O2_O2_176
 ---------
 Symbolic Z-matrix:
 Charge = -2 Multiplicity = 5

                         Standard orientation:
 ---------------------------------------------------------------------
 Center     Atomic      Atomic             Coordinates (Angstroms)
 Number     Number       Type             X           Y           Z
 ---------------------------------------------------------------------
      1          8           0        0.000000    0.000000    2.038531
      2          8           0        0.000000    0.000000    3.390911
      3          8           0        0.000000    0.000000   -3.390911
      4          8           0        0.000000    0.000000   -2.038531
 ---------------------------------------------------------------------

 SCF Done:  E(UHF) =  -298.772939129     A.U. after   16 cycles
 E2 =    -0.1163414876D+01 EUMP2 =    -0.29993635400527D+03
 CCSD(T)
 CCSD(T)= -0.29992308315D+03

 Unable to determine electronic state:  an orbital has unidentified symmetry.
 Alpha  occ. eigenvalues --  -20.24193 -20.24193 -20.20260 -20.20260  -1.11135
 Alpha  occ. eigenvalues --   -1.11130  -0.74962  -0.74901  -0.29784  -0.29767
 Alpha  occ. eigenvalues --   -0.27085  -0.27069  -0.24973  -0.24288  -0.09115
 Alpha  occ. eigenvalues --   -0.09091  -0.06604  -0.06574   0.42651
 Alpha virt. eigenvalues --    0.55831   1.04035   1.10476   1.11057   1.11430
 Alpha virt. eigenvalues --    1.12427   1.12740   1.13786   1.19656   1.20439
 Alpha virt. eigenvalues --    1.20829   1.21676   1.22394   1.34098   1.34129

  Beta  occ. eigenvalues --  -20.18402 -20.18402 -20.15236 -20.15236  -0.95018
  Beta  occ. eigenvalues --   -0.95007  -0.56003  -0.55890  -0.15929  -0.15713
  Beta  occ. eigenvalues --   -0.10166  -0.09776  -0.02964  -0.02944   0.24647
  Beta virt. eigenvalues --    0.34717   0.53804   0.53944   0.76706   0.80674
  Beta virt. eigenvalues --    1.12854   1.17371   1.18379   1.18615   1.18905
  Beta virt. eigenvalues --    1.20676   1.20848   1.26029   1.27651   1.28407

 Mulliken charges and spin densities:
               1          2
     1  O   -0.381295   1.115581
     2  O   -0.618705   0.884419
     3  O   -0.618705   0.884419
     4  O   -0.381295   1.115581
 Sum of Mulliken charges =  -2.00000   4.00000

 Dipole moment (field-independent basis, Debye):
    X=             -0.0000    Y=              0.0000    Z=              0.0000  Tot=              0.0000
 Quadrupole moment (field-independent basis, Debye-Ang):
   XX=            -25.1528   YY=            -23.9916   ZZ=           -112.3381
   XY=             -0.0000   XZ=              0.0000   YZ=             -0.0000

 862\PMP3-0=-299.915095\MP4SDQ=-299.7482509\CCSD=-299.8120643\CCSD(T)=-
 Normal termination of Gaussian 16 at Sat Jan  7 07:03:19 2023.
