 Gaussian 16, Revision A.03,
 Gaussian 16:  ES64L-G16RevA.03 25-Dec-2016

 ------------------------------------------------
 #p CCSD(T,MaxCyc=300)/cc-pVTZ Guess=Read SCF=XQC
 ------------------------------------------------

 --------
 O2_O2_94
 --------
 Symbolic Z-matrix:
 Charge = -2 Multiplicity = 5

                         Standard orientation:
 ---------------------------------------------------------------------
 Center     Atomic      Atomic             Coordinates (Angstroms)
 Number     Number       Type             X           Y           Z
 ---------------------------------------------------------------------
      1          8           0        0.000000    0.000000    1.458029
      2          8           0        0.000000    0.000000    2.810409
      3          8           0        0.000000    0.000000   -2.810409
      4          8           0        0.000000    0.000000   -1.458029
 ---------------------------------------------------------------------

 SCF Done:  E(UHF) =  -298.782399290     A.U. after   16 cycles
 E2 =    -0.1081381701D+01 EUMP2 =    -0.29986378099094D+03
 CCSD(T)
 CCSD(T)= -0.29988922404D+03

 Unable to determine electronic state:  an orbital has unidentified symmetry.
 Alpha  occ. eigenvalues --  -20.21750 -20.21749 -20.17331 -20.17331  -1.08432
 Alpha  occ. eigenvalues --   -1.08336  -0.72332  -0.71732  -0.26907  -0.26690
 Alpha  occ. eigenvalues --   -0.24555  -0.24318  -0.22782  -0.19890  -0.06714
 Alpha  occ. eigenvalues --   -0.06355  -0.03904  -0.03539   0.41789
 Alpha virt. eigenvalues --    0.63841   1.09146   1.10989   1.12107   1.13300
 Alpha virt. eigenvalues --    1.13511   1.14830   1.16247   1.19568   1.20962
 Alpha virt. eigenvalues --    1.27926   1.29122   1.36451   1.36905   1.60131

  Beta  occ. eigenvalues --  -20.16018 -20.16017 -20.12194 -20.12194  -0.92278
  Beta  occ. eigenvalues --   -0.92133  -0.53420  -0.52481  -0.13747  -0.11833
  Beta  occ. eigenvalues --   -0.07727  -0.06793   0.00123   0.00444   0.25307
  Beta virt. eigenvalues --    0.40641   0.55873   0.57215   0.79815   0.86142
  Beta virt. eigenvalues --    1.15858   1.18428   1.20234   1.20335   1.21920
  Beta virt. eigenvalues --    1.22188   1.24418   1.27651   1.30791   1.36161

 Mulliken charges and spin densities:
               1          2
     1  O   -0.371756   1.077106
     2  O   -0.628244   0.922894
     3  O   -0.628244   0.922894
     4  O   -0.371756   1.077106
 Sum of Mulliken charges =  -2.00000   4.00000

 Dipole moment (field-independent basis, Debye):
    X=             -0.0000    Y=              0.0000    Z=              0.0000  Tot=              0.0000
 Quadrupole moment (field-independent basis, Debye-Ang):
   XX=            -25.2139   YY=            -24.0371   ZZ=            -83.3027
   XY=             -0.0000   XZ=              0.0000   YZ=             -0.0000

 3685\PMP3-0=-299.8226343\MP4SDQ=-299.80403\CCSD=-299.8010001\CCSD(T)=-
 Normal termination of Gaussian 16 at Sat Jan  7 05:02:52 2023.
