 Gaussian 16, Revision A.03,
 Gaussian 16:  ES64L-G16RevA.03 25-Dec-2016

 ------------------------------------------------
 #p CCSD(T,MaxCyc=300)/cc-pVTZ Guess=Read SCF=XQC
 ------------------------------------------------

 ---------
 O2_O2_281
 ---------
 Symbolic Z-matrix:
 Charge = -2 Multiplicity = 5

                         Standard orientation:
 ---------------------------------------------------------------------
 Center     Atomic      Atomic             Coordinates (Angstroms)
 Number     Number       Type             X           Y           Z
 ---------------------------------------------------------------------
      1          8           0        0.000000    0.000000    2.781857
      2          8           0        0.000000    0.000000    4.134237
      3          8           0        0.000000    0.000000   -4.134237
      4          8           0        0.000000    0.000000   -2.781857
 ---------------------------------------------------------------------

 SCF Done:  E(UHF) =  -298.771286609     A.U. after   15 cycles
 E2 =    -0.1275046076D+01 EUMP2 =    -0.30004633268468D+03
 CCSD(T)
 CCSD(T)= -0.29995295732D+03

 Unable to determine electronic state:  an orbital has unidentified symmetry.
 Alpha  occ. eigenvalues --  -20.25239 -20.25238 -20.22401 -20.22401  -1.12953
 Alpha  occ. eigenvalues --   -1.12953  -0.76941  -0.76933  -0.31461  -0.31461
 Alpha  occ. eigenvalues --   -0.28805  -0.28804  -0.27104  -0.26889  -0.10999
 Alpha  occ. eigenvalues --   -0.10998  -0.08450  -0.08449   0.42496
 Alpha virt. eigenvalues --    0.50617   1.05758   1.05977   1.09344   1.09351
 Alpha virt. eigenvalues --    1.10701   1.10707   1.13827   1.14171   1.18017
 Alpha virt. eigenvalues --    1.18038   1.19210   1.19232   1.32263   1.32265

  Beta  occ. eigenvalues --  -20.19403 -20.19403 -20.17228 -20.17228  -0.96579
  Beta  occ. eigenvalues --   -0.96578  -0.57729  -0.57703  -0.17590  -0.17584
  Beta  occ. eigenvalues --   -0.11822  -0.11650  -0.04638  -0.04638   0.24064
  Beta virt. eigenvalues --    0.31743   0.51941   0.51942   0.76569   0.76682
  Beta virt. eigenvalues --    1.14481   1.14618   1.16904   1.16907   1.17536
  Beta virt. eigenvalues --    1.17634   1.18984   1.18986   1.26044   1.26050

 Mulliken charges and spin densities:
               1          2
     1  O   -0.409430   1.092698
     2  O   -0.590570   0.907302
     3  O   -0.590570   0.907302
     4  O   -0.409430   1.092698
 Sum of Mulliken charges =  -2.00000   4.00000

 Dipole moment (field-independent basis, Debye):
    X=             -0.0000    Y=              0.0000    Z=              0.0000  Tot=              0.0000
 Quadrupole moment (field-independent basis, Debye-Ang):
   XX=            -25.1295   YY=            -23.9651   ZZ=           -156.6626
   XY=             -0.0000   XZ=              0.0000   YZ=             -0.0000

 Normal termination of Gaussian 16 at Sat Jan  7 09:47:20 2023.
