 Gaussian 16, Revision A.03,
 Gaussian 16:  ES64L-G16RevA.03 25-Dec-2016

 ------------------------------------------------
 #p CCSD(T,MaxCyc=300)/cc-pVTZ Guess=Read SCF=XQC
 ------------------------------------------------

 ---------
 O2_O2_155
 ---------
 Symbolic Z-matrix:
 Charge = -2 Multiplicity = 5

                         Standard orientation:
 ---------------------------------------------------------------------
 Center     Atomic      Atomic             Coordinates (Angstroms)
 Number     Number       Type             X           Y           Z
 ---------------------------------------------------------------------
      1          8           0        0.000000    0.000000    1.889866
      2          8           0        0.000000    0.000000    3.242246
      3          8           0        0.000000    0.000000   -3.242246
      4          8           0        0.000000    0.000000   -1.889866
 ---------------------------------------------------------------------

 SCF Done:  E(UHF) =  -298.777420169     A.U. after   16 cycles
 E2 =    -0.1135416595D+01 EUMP2 =    -0.29991283676394D+03
 CCSD(T)
 CCSD(T)= -0.29991535706D+03

 Unable to determine electronic state:  an orbital has unidentified symmetry.
 Alpha  occ. eigenvalues --  -20.24132 -20.24132 -20.19745 -20.19745  -1.10712
 Alpha  occ. eigenvalues --   -1.10701  -0.74471  -0.74366  -0.29426  -0.29393
 Alpha  occ. eigenvalues --   -0.26721  -0.26688  -0.24397  -0.23434  -0.08691
 Alpha  occ. eigenvalues --   -0.08641  -0.06187  -0.06126   0.42342
 Alpha virt. eigenvalues --    0.57840   1.02666   1.11113   1.11324   1.12072
 Alpha virt. eigenvalues --    1.12714   1.13348   1.13472   1.19802   1.20951
 Alpha virt. eigenvalues --    1.21403   1.22676   1.28602   1.34528   1.34600

  Beta  occ. eigenvalues --  -20.18393 -20.18392 -20.14767 -20.14767  -0.94742
  Beta  occ. eigenvalues --   -0.94723  -0.55643  -0.55462  -0.15629  -0.15247
  Beta  occ. eigenvalues --   -0.09824  -0.09339  -0.02595  -0.02556   0.24682
  Beta virt. eigenvalues --    0.35510   0.54197   0.54478   0.76462   0.81930
  Beta virt. eigenvalues --    1.11407   1.17722   1.18575   1.18908   1.19479
  Beta virt. eigenvalues --    1.20998   1.21349   1.27782   1.29368   1.30689

 Mulliken charges and spin densities:
               1          2
     1  O   -0.374466   1.122782
     2  O   -0.625534   0.877218
     3  O   -0.625534   0.877218
     4  O   -0.374466   1.122782
 Sum of Mulliken charges =  -2.00000   4.00000

 Dipole moment (field-independent basis, Debye):
    X=             -0.0000    Y=              0.0000    Z=             -0.0000  Tot=              0.0000
 Quadrupole moment (field-independent basis, Debye-Ang):
   XX=            -25.1634   YY=            -24.0034   ZZ=           -104.3336
   XY=             -0.0000   XZ=              0.0000   YZ=             -0.0000

 Normal termination of Gaussian 16 at Sat Jan  7 06:31:42 2023.
