 Gaussian 16, Revision A.03,
 Gaussian 16:  ES64L-G16RevA.03 25-Dec-2016

 ------------------------------------------------
 #p CCSD(T,MaxCyc=300)/cc-pVTZ Guess=Read SCF=XQC
 ------------------------------------------------

 --------
 O2_O2_68
 --------
 Symbolic Z-matrix:
 Charge = -2 Multiplicity = 5

                         Standard orientation:
 ---------------------------------------------------------------------
 Center     Atomic      Atomic             Coordinates (Angstroms)
 Number     Number       Type             X           Y           Z
 ---------------------------------------------------------------------
      1          8           0        0.000000    0.000000    1.273967
      2          8           0        0.000000    0.000000    2.626348
      3          8           0        0.000000    0.000000   -2.626348
      4          8           0        0.000000    0.000000   -1.273967
 ---------------------------------------------------------------------

 SCF Done:  E(UHF) =  -298.780126814     A.U. after   14 cycles
 E2 =    -0.1059805289D+01 EUMP2 =    -0.29983993210278D+03
 CCSD(T)
 CCSD(T)= -0.29987438412D+03

 Unable to determine electronic state:  an orbital has unidentified symmetry.
 Alpha  occ. eigenvalues --  -20.19386 -20.19383 -20.15852 -20.15852  -1.07049
 Alpha  occ. eigenvalues --   -1.06800  -0.71285  -0.69924  -0.25316  -0.24867
 Alpha  occ. eigenvalues --   -0.23134  -0.22591  -0.22494  -0.17619  -0.05414
 Alpha  occ. eigenvalues --   -0.04555  -0.02526  -0.01748   0.41965
 Alpha virt. eigenvalues --    0.66402   1.10467   1.12719   1.13411   1.13602
 Alpha virt. eigenvalues --    1.15993   1.17735   1.19648   1.20541   1.21408
 Alpha virt. eigenvalues --    1.32718   1.33629   1.37454   1.38188   1.74693

  Beta  occ. eigenvalues --  -20.13622 -20.13620 -20.10528 -20.10528  -0.90443
  Beta  occ. eigenvalues --   -0.90077  -0.52343  -0.50246  -0.12889  -0.08992
  Beta  occ. eigenvalues --   -0.06597  -0.05372   0.01412   0.02260   0.25675
  Beta virt. eigenvalues --    0.44699   0.56969   0.59220   0.82493   0.88423
  Beta virt. eigenvalues --    1.18921   1.19665   1.21302   1.22587   1.23053
  Beta virt. eigenvalues --    1.26418   1.26633   1.27913   1.31643   1.39165

 Mulliken charges and spin densities:
               1          2
     1  O   -0.375108   1.018353
     2  O   -0.624892   0.981647
     3  O   -0.624892   0.981647
     4  O   -0.375108   1.018353
 Sum of Mulliken charges =  -2.00000   4.00000

 Dipole moment (field-independent basis, Debye):
    X=             -0.0000    Y=              0.0000    Z=             -0.0000  Tot=              0.0000
 Quadrupole moment (field-independent basis, Debye-Ang):
   XX=            -25.2553   YY=            -24.0317   ZZ=            -76.0396
   XY=             -0.0000   XZ=              0.0000   YZ=             -0.0000

 Normal termination of Gaussian 16 at Sat Jan  7 04:27:14 2023.
