 Gaussian 16, Revision A.03,
 Gaussian 16:  ES64L-G16RevA.03 25-Dec-2016

 ------------------------------------------------
 #p CCSD(T,MaxCyc=300)/cc-pVTZ Guess=Read SCF=XQC
 ------------------------------------------------

 ---------
 O2_O2_251
 ---------
 Symbolic Z-matrix:
 Charge = -2 Multiplicity = 5

                         Standard orientation:
 ---------------------------------------------------------------------
 Center     Atomic      Atomic             Coordinates (Angstroms)
 Number     Number       Type             X           Y           Z
 ---------------------------------------------------------------------
      1          8           0        0.000000    0.000000    2.569478
      2          8           0        0.000000    0.000000    3.921858
      3          8           0        0.000000    0.000000   -3.921858
      4          8           0        0.000000    0.000000   -2.569478
 ---------------------------------------------------------------------

 SCF Done:  E(UHF) =  -298.769523301     A.U. after    9 cycles
 E2 =    -0.1248742156D+01 EUMP2 =    -0.30001826545677D+03
 CCSD(T)
 CCSD(T)= -0.29994596118D+03

 Unable to determine electronic state:  an orbital has unidentified symmetry.
 Alpha  occ. eigenvalues --  -20.24852 -20.24851 -20.21815 -20.21815  -1.12464
 Alpha  occ. eigenvalues --   -1.12463  -0.76427  -0.76414  -0.30989  -0.30988
 Alpha  occ. eigenvalues --   -0.28322  -0.28321  -0.26596  -0.26321  -0.10482
 Alpha  occ. eigenvalues --   -0.10481  -0.07944  -0.07942   0.42694
 Alpha virt. eigenvalues --    0.51561   1.06078   1.06820   1.09829   1.09849
 Alpha virt. eigenvalues --    1.11186   1.11202   1.14220   1.14947   1.18512
 Alpha virt. eigenvalues --    1.18559   1.19705   1.19756   1.32746   1.32751

  Beta  occ. eigenvalues --  -20.19000 -20.18999 -20.16672 -20.16672  -0.96101
  Beta  occ. eigenvalues --   -0.96098  -0.57235  -0.57201  -0.17093  -0.17075
  Beta  occ. eigenvalues --   -0.11345  -0.11135  -0.04169  -0.04168   0.24285
  Beta virt. eigenvalues --    0.32502   0.52454   0.52460   0.76972   0.77384
  Beta virt. eigenvalues --    1.14832   1.15313   1.17391   1.17405   1.17971
  Beta virt. eigenvalues --    1.18397   1.19459   1.19465   1.26535   1.26563

 Mulliken charges and spin densities:
               1          2
     1  O   -0.402253   1.098293
     2  O   -0.597747   0.901707
     3  O   -0.597747   0.901707
     4  O   -0.402253   1.098293
 Sum of Mulliken charges =  -2.00000   4.00000

 Dipole moment (field-independent basis, Debye):
    X=             -0.0000    Y=              0.0000    Z=             -0.0000  Tot=              0.0000
 Quadrupole moment (field-independent basis, Debye-Ang):
   XX=            -25.1326   YY=            -23.9677   ZZ=           -143.1051
   XY=             -0.0000   XZ=              0.0000   YZ=             -0.0000

 Normal termination of Gaussian 16 at Sat Jan  7 08:59:08 2023.
