 Gaussian 16, Revision A.03,
 Gaussian 16:  ES64L-G16RevA.03 25-Dec-2016

 ------------------------------------------------
 #p CCSD(T,MaxCyc=300)/cc-pVTZ Guess=Read SCF=XQC
 ------------------------------------------------

 --------
 O2_O2_71
 --------
 Symbolic Z-matrix:
 Charge = -2 Multiplicity = 5

                         Standard orientation:
 ---------------------------------------------------------------------
 Center     Atomic      Atomic             Coordinates (Angstroms)
 Number     Number       Type             X           Y           Z
 ---------------------------------------------------------------------
      1          8           0        0.000000    0.000000    1.295205
      2          8           0        0.000000    0.000000    2.647585
      3          8           0        0.000000    0.000000   -2.647585
      4          8           0        0.000000    0.000000   -1.295205
 ---------------------------------------------------------------------

 SCF Done:  E(UHF) =  -298.780371676     A.U. after   14 cycles
 E2 =    -0.1062519621D+01 EUMP2 =    -0.29984289129703D+03
 CCSD(T)
 CCSD(T)= -0.29987630449D+03

 Unable to determine electronic state:  an orbital has unidentified symmetry.
 Alpha  occ. eigenvalues --  -20.19659 -20.19657 -20.16045 -20.16044  -1.07206
 Alpha  occ. eigenvalues --   -1.06983  -0.71390  -0.70155  -0.25491  -0.25079
 Alpha  occ. eigenvalues --   -0.23294  -0.22801  -0.22499  -0.17919  -0.05567
 Alpha  occ. eigenvalues --   -0.04788  -0.02683  -0.01969   0.41950
 Alpha virt. eigenvalues --    0.66069   1.10515   1.12629   1.13437   1.13544
 Alpha virt. eigenvalues --    1.15858   1.17564   1.18958   1.19605   1.21325
 Alpha virt. eigenvalues --    1.32146   1.33089   1.37346   1.38041   1.73196

  Beta  occ. eigenvalues --  -20.13901 -20.13899 -20.10740 -20.10740  -0.90656
  Beta  occ. eigenvalues --   -0.90327  -0.52437  -0.50530  -0.12957  -0.09365
  Beta  occ. eigenvalues --   -0.06727  -0.05546   0.01285   0.02046   0.25657
  Beta virt. eigenvalues --    0.44195   0.56842   0.58963   0.82191   0.88148
  Beta virt. eigenvalues --    1.18836   1.19487   1.21157   1.22525   1.22917
  Beta virt. eigenvalues --    1.25413   1.26187   1.27842   1.31505   1.39044

 Mulliken charges and spin densities:
               1          2
     1  O   -0.375627   1.024721
     2  O   -0.624373   0.975279
     3  O   -0.624373   0.975279
     4  O   -0.375627   1.024721
 Sum of Mulliken charges =  -2.00000   4.00000

 Dipole moment (field-independent basis, Debye):
    X=             -0.0000    Y=              0.0000    Z=             -0.0000  Tot=              0.0000
 Quadrupole moment (field-independent basis, Debye-Ang):
   XX=            -25.2496   YY=            -24.0325   ZZ=            -76.7948
   XY=             -0.0000   XZ=              0.0000   YZ=             -0.0000

 831\PMP3-0=-299.8034462\MP4SDQ=-299.7980262\CCSD=-299.7937019\CCSD(T)=
 Normal termination of Gaussian 16 at Sat Jan  7 04:31:23 2023.
