 Gaussian 16, Revision A.03,
 Gaussian 16:  ES64L-G16RevA.03 25-Dec-2016

 ------------------------------------------------
 #p CCSD(T,MaxCyc=300)/cc-pVTZ Guess=Read SCF=XQC
 ------------------------------------------------

 ---------
 O2_O2_114
 ---------
 Symbolic Z-matrix:
 Charge = -2 Multiplicity = 5

                         Standard orientation:
 ---------------------------------------------------------------------
 Center     Atomic      Atomic             Coordinates (Angstroms)
 Number     Number       Type             X           Y           Z
 ---------------------------------------------------------------------
      1          8           0        0.000000    0.000000    1.599615
      2          8           0        0.000000    0.000000    2.951995
      3          8           0        0.000000    0.000000   -2.951995
      4          8           0        0.000000    0.000000   -1.599615
 ---------------------------------------------------------------------

 SCF Done:  E(UHF) =  -298.783354041     A.U. after   16 cycles
 E2 =    -0.1095024578D+01 EUMP2 =    -0.29987837861881D+03
 CCSD(T)
 CCSD(T)= -0.29989869965D+03

 Unable to determine electronic state:  an orbital has unidentified symmetry.
 Alpha  occ. eigenvalues --  -20.23218 -20.23217 -20.18206 -20.18206  -1.09414
 Alpha  occ. eigenvalues --   -1.09366  -0.73158  -0.72827  -0.28097  -0.27973
 Alpha  occ. eigenvalues --   -0.25530  -0.25404  -0.23242  -0.21258  -0.07499
 Alpha  occ. eigenvalues --   -0.07318  -0.04874  -0.04669   0.41761
 Alpha virt. eigenvalues --    0.62036   1.04159   1.11370   1.11758   1.13139
 Alpha virt. eigenvalues --    1.13475   1.13880   1.15126   1.19744   1.20915
 Alpha virt. eigenvalues --    1.24933   1.26266   1.35658   1.35964   1.48067

  Beta  occ. eigenvalues --  -20.17498 -20.17497 -20.13210 -20.13210  -0.93484
  Beta  occ. eigenvalues --   -0.93413  -0.54376  -0.53854  -0.14563  -0.13451
  Beta  occ. eigenvalues --   -0.08591  -0.07819  -0.01094  -0.00948   0.24982
  Beta virt. eigenvalues --    0.38188   0.55200   0.56076   0.77972   0.84579
  Beta virt. eigenvalues --    1.12201   1.18256   1.19470   1.19625   1.21082
  Beta virt. eigenvalues --    1.21809   1.23029   1.27732   1.30601   1.33029

 Mulliken charges and spin densities:
               1          2
     1  O   -0.363793   1.116893
     2  O   -0.636207   0.883107
     3  O   -0.636207   0.883107
     4  O   -0.363793   1.116893
 Sum of Mulliken charges =  -2.00000   4.00000

 Dipole moment (field-independent basis, Debye):
    X=             -0.0000    Y=              0.0000    Z=              0.0000  Tot=              0.0000
 Quadrupole moment (field-independent basis, Debye-Ang):
   XX=            -25.1924   YY=            -24.0283   ZZ=            -89.9044
   XY=             -0.0000   XZ=              0.0000   YZ=             -0.0000

 Normal termination of Gaussian 16 at Sat Jan  7 05:30:47 2023.
