 Gaussian 16, Revision A.03,
 Gaussian 16:  ES64L-G16RevA.03 25-Dec-2016

 ------------------------------------------------
 #p CCSD(T,MaxCyc=300)/cc-pVTZ Guess=Read SCF=XQC
 ------------------------------------------------

 ---------
 O2_O2_210
 ---------
 Symbolic Z-matrix:
 Charge = -2 Multiplicity = 5

                         Standard orientation:
 ---------------------------------------------------------------------
 Center     Atomic      Atomic             Coordinates (Angstroms)
 Number     Number       Type             X           Y           Z
 ---------------------------------------------------------------------
      1          8           0        0.000000    0.000000    2.279227
      2          8           0        0.000000    0.000000    3.631607
      3          8           0        0.000000    0.000000   -3.631607
      4          8           0        0.000000    0.000000   -2.279227
 ---------------------------------------------------------------------

 SCF Done:  E(UHF) =  -298.769116808     A.U. after   12 cycles
 E2 =    -0.1206418836D+01 EUMP2 =    -0.29997553564456D+03
 CCSD(T)
 CCSD(T)= -0.29993447309D+03

 Unable to determine electronic state:  an orbital has unidentified symmetry.
 Alpha  occ. eigenvalues --  -20.24387 -20.24386 -20.20972 -20.20972  -1.11746
 Alpha  occ. eigenvalues --   -1.11745  -0.75655  -0.75628  -0.30316  -0.30312
 Alpha  occ. eigenvalues --   -0.27634  -0.27630  -0.25784  -0.25359  -0.09736
 Alpha  occ. eigenvalues --   -0.09729  -0.07212  -0.07203   0.42836
 Alpha virt. eigenvalues --    0.53410   1.05750   1.08730   1.10528   1.10631
 Alpha virt. eigenvalues --    1.11886   1.11972   1.14305   1.17151   1.19204
 Alpha virt. eigenvalues --    1.19421   1.20394   1.20629   1.33471   1.33472

  Beta  occ. eigenvalues --  -20.18540 -20.18540 -20.15883 -20.15883  -0.95458
  Beta  occ. eigenvalues --   -0.95453  -0.56541  -0.56481  -0.16413  -0.16337
  Beta  occ. eigenvalues --   -0.10678  -0.10391  -0.03499  -0.03493   0.24542
  Beta virt. eigenvalues --    0.33653   0.53196   0.53234   0.77145   0.78867
  Beta virt. eigenvalues --    1.14607   1.16537   1.18087   1.18166   1.18268
  Beta virt. eigenvalues --    1.20140   1.20185   1.20733   1.27218   1.27409

 Mulliken charges and spin densities:
               1          2
     1  O   -0.391258   1.106641
     2  O   -0.608742   0.893359
     3  O   -0.608742   0.893359
     4  O   -0.391258   1.106641
 Sum of Mulliken charges =  -2.00000   4.00000

 Dipole moment (field-independent basis, Debye):
    X=             -0.0000    Y=              0.0000    Z=             -0.0000  Tot=              0.0000
 Quadrupole moment (field-independent basis, Debye-Ang):
   XX=            -25.1405   YY=            -23.9766   ZZ=           -125.8193
   XY=             -0.0000   XZ=              0.0000   YZ=             -0.0000

 Normal termination of Gaussian 16 at Sat Jan  7 07:55:42 2023.
