 Gaussian 16, Revision A.03,
 Gaussian 16:  ES64L-G16RevA.03 25-Dec-2016

 ------------------------------------------------
 #p CCSD(T,MaxCyc=300)/cc-pVTZ Guess=Read SCF=XQC
 ------------------------------------------------

 ---------
 O2_O2_207
 ---------
 Symbolic Z-matrix:
 Charge = -2 Multiplicity = 5

                         Standard orientation:
 ---------------------------------------------------------------------
 Center     Atomic      Atomic             Coordinates (Angstroms)
 Number     Number       Type             X           Y           Z
 ---------------------------------------------------------------------
      1          8           0        0.000000    0.000000    2.257989
      2          8           0        0.000000    0.000000    3.610369
      3          8           0        0.000000    0.000000   -3.610369
      4          8           0        0.000000    0.000000   -2.257989
 ---------------------------------------------------------------------

 SCF Done:  E(UHF) =  -298.769265161     A.U. after   12 cycles
 E2 =    -0.1202912156D+01 EUMP2 =    -0.29997217731731D+03
 CCSD(T)
 CCSD(T)= -0.29993353354D+03

 Unable to determine electronic state:  an orbital has unidentified symmetry.
 Alpha  occ. eigenvalues --  -20.24361 -20.24361 -20.20911 -20.20910  -1.11693
 Alpha  occ. eigenvalues --   -1.11691  -0.75596  -0.75568  -0.30268  -0.30263
 Alpha  occ. eigenvalues --   -0.27585  -0.27579  -0.25718  -0.25277  -0.09682
 Alpha  occ. eigenvalues --   -0.09674  -0.07158  -0.07149   0.42834
 Alpha virt. eigenvalues --    0.53584   1.05660   1.08899   1.10579   1.10694
 Alpha virt. eigenvalues --    1.11937   1.12033   1.14277   1.17433   1.19251
 Alpha virt. eigenvalues --    1.19495   1.20440   1.20705   1.33526   1.33526

  Beta  occ. eigenvalues --  -20.18517 -20.18516 -20.15826 -20.15826  -0.95415
  Beta  occ. eigenvalues --   -0.95410  -0.56492  -0.56429  -0.16367  -0.16283
  Beta  occ. eigenvalues --   -0.10631  -0.10336  -0.03450  -0.03444   0.24556
  Beta virt. eigenvalues --    0.33742   0.53251   0.53294   0.77127   0.79007
  Beta virt. eigenvalues --    1.14521   1.16625   1.18137   1.18226   1.18275
  Beta virt. eigenvalues --    1.20189   1.20241   1.21034   1.27264   1.27481

 Mulliken charges and spin densities:
               1          2
     1  O   -0.390411   1.107313
     2  O   -0.609589   0.892687
     3  O   -0.609589   0.892687
     4  O   -0.390411   1.107313
 Sum of Mulliken charges =  -2.00000   4.00000

 Dipole moment (field-independent basis, Debye):
    X=             -0.0000    Y=              0.0000    Z=             -0.0000  Tot=              0.0000
 Quadrupole moment (field-independent basis, Debye-Ang):
   XX=            -25.1414   YY=            -23.9777   ZZ=           -124.6030
   XY=             -0.0000   XZ=              0.0000   YZ=             -0.0000

 Normal termination of Gaussian 16 at Sat Jan  7 07:51:19 2023.
