 Gaussian 16, Revision A.03,
 Gaussian 16:  ES64L-G16RevA.03 25-Dec-2016

 ------------------------------------------------
 #p CCSD(T,MaxCyc=300)/cc-pVTZ Guess=Read SCF=XQC
 ------------------------------------------------

 ---------
 O2_O2_101
 ---------
 Symbolic Z-matrix:
 Charge = -2 Multiplicity = 5

                         Standard orientation:
 ---------------------------------------------------------------------
 Center     Atomic      Atomic             Coordinates (Angstroms)
 Number     Number       Type             X           Y           Z
 ---------------------------------------------------------------------
      1          8           0        0.000000    0.000000    1.507584
      2          8           0        0.000000    0.000000    2.859964
      3          8           0        0.000000    0.000000   -2.859964
      4          8           0        0.000000    0.000000   -1.507584
 ---------------------------------------------------------------------

 SCF Done:  E(UHF) =  -298.782932863     A.U. after   16 cycles
 E2 =    -0.1086427124D+01 EUMP2 =    -0.29986935998653D+03
 CCSD(T)
 CCSD(T)= -0.29989269040D+03

 Unable to determine electronic state:  an orbital has unidentified symmetry.
 Alpha  occ. eigenvalues --  -20.22352 -20.22351 -20.17645 -20.17644  -1.08798
 Alpha  occ. eigenvalues --   -1.08723  -0.72633  -0.72148  -0.27352  -0.27173
 Alpha  occ. eigenvalues --   -0.24926  -0.24736  -0.22932  -0.20402  -0.07015
 Alpha  occ. eigenvalues --   -0.06734  -0.04264  -0.03966   0.41753
 Alpha virt. eigenvalues --    0.63212   1.07007   1.11152   1.11964   1.13239
 Alpha virt. eigenvalues --    1.13513   1.14511   1.15848   1.19630   1.20928
 Alpha virt. eigenvalues --    1.26770   1.28035   1.36165   1.36562   1.55836

  Beta  occ. eigenvalues --  -20.16621 -20.16620 -20.12564 -20.12564  -0.92740
  Beta  occ. eigenvalues --   -0.92627  -0.53765  -0.53003  -0.14042  -0.12461
  Beta  occ. eigenvalues --   -0.08030  -0.07152  -0.00299  -0.00058   0.25176
  Beta virt. eigenvalues --    0.39681   0.55611   0.56776   0.79117   0.85569
  Beta virt. eigenvalues --    1.14339   1.18368   1.19944   1.19995   1.21634
  Beta virt. eigenvalues --    1.22073   1.23895   1.27670   1.30678   1.34961

 Mulliken charges and spin densities:
               1          2
     1  O   -0.367969   1.093919
     2  O   -0.632031   0.906081
     3  O   -0.632031   0.906081
     4  O   -0.367969   1.093919
 Sum of Mulliken charges =  -2.00000   4.00000

 Dipole moment (field-independent basis, Debye):
    X=             -0.0000    Y=              0.0000    Z=             -0.0000  Tot=              0.0000
 Quadrupole moment (field-independent basis, Debye-Ang):
   XX=            -25.2058   YY=            -24.0359   ZZ=            -85.5726
   XY=             -0.0000   XZ=              0.0000   YZ=             -0.0000

 Normal termination of Gaussian 16 at Sat Jan  7 05:12:27 2023.
