 Gaussian 16, Revision A.03,
 Gaussian 16:  ES64L-G16RevA.03 25-Dec-2016

 ------------------------------------------------
 #p CCSD(T,MaxCyc=300)/cc-pVTZ Guess=Read SCF=XQC
 ------------------------------------------------

 ---------
 O2_O2_256
 ---------
 Symbolic Z-matrix:
 Charge = -2 Multiplicity = 5

                         Standard orientation:
 ---------------------------------------------------------------------
 Center     Atomic      Atomic             Coordinates (Angstroms)
 Number     Number       Type             X           Y           Z
 ---------------------------------------------------------------------
      1          8           0        0.000000    0.000000    2.604874
      2          8           0        0.000000    0.000000    3.957254
      3          8           0        0.000000    0.000000   -3.957254
      4          8           0        0.000000    0.000000   -2.604874
 ---------------------------------------------------------------------

 SCF Done:  E(UHF) =  -298.769773139     A.U. after    9 cycles
 E2 =    -0.1253322542D+01 EUMP2 =    -0.30002309568113D+03
 CCSD(T)
 CCSD(T)= -0.29994720310D+03

 Unable to determine electronic state:  an orbital has unidentified symmetry.
 Alpha  occ. eigenvalues --  -20.24916 -20.24916 -20.21915 -20.21915  -1.12548
 Alpha  occ. eigenvalues --   -1.12548  -0.76516  -0.76504  -0.31070  -0.31069
 Alpha  occ. eigenvalues --   -0.28405  -0.28404  -0.26685  -0.26422  -0.10571
 Alpha  occ. eigenvalues --   -0.10570  -0.08031  -0.08030   0.42663
 Alpha virt. eigenvalues --    0.51387   1.06042   1.06653   1.09746   1.09762
 Alpha virt. eigenvalues --    1.11103   1.11116   1.14164   1.14793   1.18427
 Alpha virt. eigenvalues --    1.18468   1.19620   1.19663   1.32663   1.32667

  Beta  occ. eigenvalues --  -20.19066 -20.19066 -20.16767 -20.16767  -0.96182
  Beta  occ. eigenvalues --   -0.96179  -0.57320  -0.57287  -0.17177  -0.17162
  Beta  occ. eigenvalues --   -0.11426  -0.11224  -0.04250  -0.04249   0.24249
  Beta virt. eigenvalues --    0.32370   0.52366   0.52371   0.76914   0.77250
  Beta virt. eigenvalues --    1.14788   1.15183   1.17308   1.17318   1.17906
  Beta virt. eigenvalues --    1.18243   1.19377   1.19382   1.26451   1.26473

 Mulliken charges and spin densities:
               1          2
     1  O   -0.403503   1.097338
     2  O   -0.596497   0.902662
     3  O   -0.596497   0.902662
     4  O   -0.403503   1.097338
 Sum of Mulliken charges =  -2.00000   4.00000

 Dipole moment (field-independent basis, Debye):
    X=             -0.0000    Y=              0.0000    Z=              0.0000  Tot=              0.0000
 Quadrupole moment (field-independent basis, Debye-Ang):
   XX=            -25.1320   YY=            -23.9671   ZZ=           -145.3081
   XY=             -0.0000   XZ=              0.0000   YZ=             -0.0000

 Normal termination of Gaussian 16 at Sat Jan  7 09:07:15 2023.
