 Gaussian 16, Revision A.03,
 Gaussian 16:  ES64L-G16RevA.03 25-Dec-2016

 ------------------------------------------------
 #p CCSD(T,MaxCyc=300)/cc-pVTZ Guess=Read SCF=XQC
 ------------------------------------------------

 --------
 O2_O2_24
 --------
 Symbolic Z-matrix:
 Charge = -2 Multiplicity = 5

                         Standard orientation:
 ---------------------------------------------------------------------
 Center     Atomic      Atomic             Coordinates (Angstroms)
 Number     Number       Type             X           Y           Z
 ---------------------------------------------------------------------
      1          8           0        0.000000    0.000000    0.962478
      2          8           0        0.000000    0.000000    2.314859
      3          8           0        0.000000    0.000000   -2.314859
      4          8           0        0.000000    0.000000   -0.962478
 ---------------------------------------------------------------------

 SCF Done:  E(UHF) =  -298.766104235     A.U. after   13 cycles
 E2 =    -0.1011174992D+01 EUMP2 =    -0.29977727922666D+03
 CCSD(T)
 CCSD(T)= -0.29982629991D+03

 Unable to determine electronic state:  an orbital has unidentified symmetry.
 Alpha  occ. eigenvalues --  -20.14718 -20.14711 -20.12322 -20.12322  -1.04917
 Alpha  occ. eigenvalues --   -1.03528  -0.71094  -0.65152  -0.23805  -0.22914
 Alpha  occ. eigenvalues --   -0.21271  -0.21054  -0.18744  -0.10763  -0.03458
 Alpha  occ. eigenvalues --   -0.00398   0.00158   0.02440   0.41363
 Alpha virt. eigenvalues --    0.74628   1.09973   1.12478   1.15798   1.16542
 Alpha virt. eigenvalues --    1.18058   1.20346   1.22155   1.24134   1.38603
 Alpha virt. eigenvalues --    1.39256   1.40751   1.41222   1.47654   1.91187

  Beta  occ. eigenvalues --  -20.09020 -20.09016 -20.06663 -20.06663  -0.87654
  Beta  occ. eigenvalues --   -0.85709  -0.53140  -0.44620  -0.13178  -0.04722
  Beta  occ. eigenvalues --   -0.02370  -0.00587   0.02141   0.06152   0.24534
  Beta virt. eigenvalues --    0.53909   0.58860   0.63977   0.86676   0.93158
  Beta virt. eigenvalues --    1.20706   1.21313   1.24370   1.25242   1.25293
  Beta virt. eigenvalues --    1.30087   1.31600   1.35323   1.40600   1.41368

 Mulliken charges and spin densities:
               1          2
     1  O   -0.353857   0.911049
     2  O   -0.646143   1.088951
     3  O   -0.646143   1.088951
     4  O   -0.353857   0.911049
 Sum of Mulliken charges =  -2.00000   4.00000

 Dipole moment (field-independent basis, Debye):
    X=             -0.0000    Y=             -0.0000    Z=             -0.0000  Tot=              0.0000
 Quadrupole moment (field-independent basis, Debye-Ang):
   XX=            -25.2882   YY=            -23.9624   ZZ=            -66.5225
   XY=             -0.0000   XZ=              0.0000   YZ=             -0.0000

 Normal termination of Gaussian 16 at Sat Jan  7 03:26:13 2023.
