 Gaussian 16, Revision A.03,
 Gaussian 16:  ES64L-G16RevA.03 25-Dec-2016

 ------------------------------------------------
 #p CCSD(T,MaxCyc=300)/cc-pVTZ Guess=Read SCF=XQC
 ------------------------------------------------

 --------
 O2_O2_57
 --------
 Symbolic Z-matrix:
 Charge = -2 Multiplicity = 5

                         Standard orientation:
 ---------------------------------------------------------------------
 Center     Atomic      Atomic             Coordinates (Angstroms)
 Number     Number       Type             X           Y           Z
 ---------------------------------------------------------------------
      1          8           0        0.000000    0.000000    1.196095
      2          8           0        0.000000    0.000000    2.548475
      3          8           0        0.000000    0.000000   -2.548475
      4          8           0        0.000000    0.000000   -1.196095
 ---------------------------------------------------------------------

 SCF Done:  E(UHF) =  -298.779144045     A.U. after   13 cycles
 E2 =    -0.1049229489D+01 EUMP2 =    -0.29982837353406D+03
 CCSD(T)
 CCSD(T)= -0.29986659237D+03

 Unable to determine electronic state:  an orbital has unidentified symmetry.
 Alpha  occ. eigenvalues --  -20.18366 -20.18363 -20.15110 -20.15110  -1.06483
 Alpha  occ. eigenvalues --   -1.06103  -0.70960  -0.69012  -0.24686  -0.24067
 Alpha  occ. eigenvalues --   -0.22562  -0.22557  -0.21786  -0.16394  -0.04865
 Alpha  occ. eigenvalues --   -0.03636  -0.01964  -0.00893   0.41983
 Alpha virt. eigenvalues --    0.67772   1.10319   1.13154   1.13257   1.13930
 Alpha virt. eigenvalues --    1.16489   1.18361   1.19909   1.21802   1.26868
 Alpha virt. eigenvalues --    1.34812   1.35611   1.37824   1.38735   1.79728

  Beta  occ. eigenvalues --  -20.12586 -20.12583 -20.09715 -20.09715  -0.89676
  Beta  occ. eigenvalues --   -0.89130  -0.52102  -0.49132  -0.12733  -0.07485
  Beta  occ. eigenvalues --   -0.06121  -0.04716   0.01824   0.03074   0.25657
  Beta virt. eigenvalues --    0.46655   0.57427   0.60218   0.83570   0.89463
  Beta virt. eigenvalues --    1.19300   1.20117   1.21909   1.22909   1.23564
  Beta virt. eigenvalues --    1.27271   1.28317   1.31728   1.32251   1.39585

 Mulliken charges and spin densities:
               1          2
     1  O   -0.371796   0.994843
     2  O   -0.628204   1.005157
     3  O   -0.628204   1.005157
     4  O   -0.371796   0.994843
 Sum of Mulliken charges =  -2.00000   4.00000

 Dipole moment (field-independent basis, Debye):
    X=             -0.0000    Y=             -0.0000    Z=             -0.0000  Tot=              0.0000
 Quadrupole moment (field-independent basis, Debye-Ang):
   XX=            -25.2761   YY=            -24.0278   ZZ=            -73.4010
   XY=             -0.0000   XZ=              0.0000   YZ=             -0.0000

 6\PMP3-0=-299.7906181\MP4SDQ=-299.7917415\CCSD=-299.7881904\CCSD(T)=-2
 Normal termination of Gaussian 16 at Sat Jan  7 04:11:59 2023.
