 Gaussian 16, Revision A.03,
 Gaussian 16:  ES64L-G16RevA.03 25-Dec-2016

 ------------------------------------------------
 #p CCSD(T,MaxCyc=300)/cc-pVTZ Guess=Read SCF=XQC
 ------------------------------------------------

 ---------
 O2_O2_244
 ---------
 Symbolic Z-matrix:
 Charge = -2 Multiplicity = 5

                         Standard orientation:
 ---------------------------------------------------------------------
 Center     Atomic      Atomic             Coordinates (Angstroms)
 Number     Number       Type             X           Y           Z
 ---------------------------------------------------------------------
      1          8           0        0.000000    0.000000    2.519923
      2          8           0        0.000000    0.000000    3.872303
      3          8           0        0.000000    0.000000   -3.872303
      4          8           0        0.000000    0.000000   -2.519923
 ---------------------------------------------------------------------

 SCF Done:  E(UHF) =  -298.769221885     A.U. after   10 cycles
 E2 =    -0.1242156091D+01 EUMP2 =    -0.30001137797604D+03
 CCSD(T)
 CCSD(T)= -0.29994417247D+03

 Unable to determine electronic state:  an orbital has unidentified symmetry.
 Alpha  occ. eigenvalues --  -20.24763 -20.24763 -20.21673 -20.21673  -1.12344
 Alpha  occ. eigenvalues --   -1.12344  -0.76300  -0.76286  -0.30875  -0.30873
 Alpha  occ. eigenvalues --   -0.28205  -0.28204  -0.26468  -0.26175  -0.10356
 Alpha  occ. eigenvalues --   -0.10355  -0.07821  -0.07819   0.42733
 Alpha virt. eigenvalues --    0.51820   1.06110   1.07077   1.09948   1.09973
 Alpha virt. eigenvalues --    1.11304   1.11326   1.14286   1.15187   1.18632
 Alpha virt. eigenvalues --    1.18692   1.19824   1.19889   1.32865   1.32870

  Beta  occ. eigenvalues --  -20.18909 -20.18909 -20.16538 -20.16538  -0.95987
  Beta  occ. eigenvalues --   -0.95984  -0.57116  -0.57079  -0.16974  -0.16951
  Beta  occ. eigenvalues --   -0.11230  -0.11009  -0.04056  -0.04054   0.24335
  Beta virt. eigenvalues --    0.32689   0.52579   0.52588   0.77045   0.77586
  Beta virt. eigenvalues --    1.14879   1.15506   1.17510   1.17528   1.18052
  Beta virt. eigenvalues --    1.18642   1.19574   1.19583   1.26654   1.26694

 Mulliken charges and spin densities:
               1          2
     1  O   -0.400459   1.099658
     2  O   -0.599541   0.900342
     3  O   -0.599541   0.900342
     4  O   -0.400459   1.099658
 Sum of Mulliken charges =  -2.00000   4.00000

 Dipole moment (field-independent basis, Debye):
    X=             -0.0000    Y=              0.0000    Z=             -0.0000  Tot=              0.0000
 Quadrupole moment (field-independent basis, Debye-Ang):
   XX=            -25.1336   YY=            -23.9687   ZZ=           -140.0584
   XY=             -0.0000   XZ=              0.0000   YZ=             -0.0000

 Normal termination of Gaussian 16 at Sat Jan  7 08:48:09 2023.
