 Gaussian 16, Revision A.03,
 Gaussian 16:  ES64L-G16RevA.03 25-Dec-2016

 ------------------------------------------------
 #p CCSD(T,MaxCyc=300)/cc-pVTZ Guess=Read SCF=XQC
 ------------------------------------------------

 ---------
 O2_O2_202
 ---------
 Symbolic Z-matrix:
 Charge = -2 Multiplicity = 5

                         Standard orientation:
 ---------------------------------------------------------------------
 Center     Atomic      Atomic             Coordinates (Angstroms)
 Number     Number       Type             X           Y           Z
 ---------------------------------------------------------------------
      1          8           0        0.000000    0.000000    2.222593
      2          8           0        0.000000    0.000000    3.574973
      3          8           0        0.000000    0.000000   -3.574973
      4          8           0        0.000000    0.000000   -2.222593
 ---------------------------------------------------------------------

 SCF Done:  E(UHF) =  -298.769586943     A.U. after   12 cycles
 E2 =    -0.1196931313D+01 EUMP2 =    -0.29996651825671D+03
 CCSD(T)
 CCSD(T)= -0.29993193844D+03

 Unable to determine electronic state:  an orbital has unidentified symmetry.
 Alpha  occ. eigenvalues --  -20.24321 -20.24321 -20.20807 -20.20807  -1.11604
 Alpha  occ. eigenvalues --   -1.11602  -0.75497  -0.75465  -0.30188  -0.30182
 Alpha  occ. eigenvalues --   -0.27503  -0.27496  -0.25606  -0.25135  -0.09591
 Alpha  occ. eigenvalues --   -0.09581  -0.07069  -0.07057   0.42825
 Alpha virt. eigenvalues --    0.53890   1.05483   1.09181   1.10661   1.10802
 Alpha virt. eigenvalues --    1.12020   1.12138   1.14220   1.17964   1.19327
 Alpha virt. eigenvalues --    1.19624   1.20515   1.20837   1.33617   1.33620

  Beta  occ. eigenvalues --  -20.18482 -20.18482 -20.15732 -20.15731  -0.95345
  Beta  occ. eigenvalues --   -0.95339  -0.56411  -0.56342  -0.16291  -0.16193
  Beta  occ. eigenvalues --   -0.10553  -0.10246  -0.03371  -0.03363   0.24577
  Beta virt. eigenvalues --    0.33892   0.53341   0.53393   0.77087   0.79250
  Beta virt. eigenvalues --    1.14347   1.16766   1.18218   1.18285   1.18328
  Beta virt. eigenvalues --    1.20271   1.20334   1.21596   1.27338   1.27607

 Mulliken charges and spin densities:
               1          2
     1  O   -0.388989   1.108466
     2  O   -0.611011   0.891534
     3  O   -0.611011   0.891534
     4  O   -0.388989   1.108466
 Sum of Mulliken charges =  -2.00000   4.00000

 Dipole moment (field-independent basis, Debye):
    X=             -0.0000    Y=             -0.0000    Z=              0.0000  Tot=              0.0000
 Quadrupole moment (field-independent basis, Debye-Ang):
   XX=            -25.1429   YY=            -23.9795   ZZ=           -122.5884
   XY=             -0.0000   XZ=              0.0000   YZ=             -0.0000

 Normal termination of Gaussian 16 at Sat Jan  7 07:43:48 2023.
