 Gaussian 16, Revision A.03,
 Gaussian 16:  ES64L-G16RevA.03 25-Dec-2016

 ------------------------------------------------
 #p CCSD(T,MaxCyc=300)/cc-pVTZ Guess=Read SCF=XQC
 ------------------------------------------------

 --------
 O2_O2_17
 --------
 Symbolic Z-matrix:
 Charge = -2 Multiplicity = 5

                         Standard orientation:
 ---------------------------------------------------------------------
 Center     Atomic      Atomic             Coordinates (Angstroms)
 Number     Number       Type             X           Y           Z
 ---------------------------------------------------------------------
      1          8           0        0.000000    0.000000    0.912923
      2          8           0        0.000000    0.000000    2.265304
      3          8           0        0.000000    0.000000   -2.265304
      4          8           0        0.000000    0.000000   -0.912923
 ---------------------------------------------------------------------

 SCF Done:  E(UHF) =  -298.757265970     A.U. after   13 cycles
 E2 =    -0.1001824369D+01 EUMP2 =    -0.29975909033957D+03
 CCSD(T)
 CCSD(T)= -0.29981031388D+03

 Unable to determine electronic state:  an orbital has unidentified symmetry.
 Alpha  occ. eigenvalues --  -20.13770 -20.13760 -20.11532 -20.11531  -1.04675
 Alpha  occ. eigenvalues --   -1.02823  -0.71557  -0.63991  -0.24356  -0.22591
 Alpha  occ. eigenvalues --   -0.20846  -0.20551  -0.17903  -0.08985  -0.03265
 Alpha  occ. eigenvalues --   -0.00103   0.01291   0.03402   0.40961
 Alpha virt. eigenvalues --    0.77042   1.09979   1.12315   1.16481   1.17322
 Alpha virt. eigenvalues --    1.18437   1.20826   1.23090   1.24969   1.38640
 Alpha virt. eigenvalues --    1.39370   1.41892   1.42295   1.50762   1.92848

  Beta  occ. eigenvalues --  -20.08135 -20.08129 -20.05800 -20.05800  -0.87408
  Beta  occ. eigenvalues --   -0.84795  -0.53960  -0.43323  -0.13418  -0.04447
  Beta  occ. eigenvalues --   -0.01741   0.01691   0.01847   0.07013   0.23992
  Beta virt. eigenvalues --    0.55789   0.59214   0.64977   0.87301   0.94151
  Beta virt. eigenvalues --    1.20729   1.22068   1.24903   1.25740   1.25928
  Beta virt. eigenvalues --    1.30791   1.32734   1.36256   1.40739   1.41481

 Mulliken charges and spin densities:
               1          2
     1  O   -0.348471   0.888943
     2  O   -0.651529   1.111057
     3  O   -0.651529   1.111057
     4  O   -0.348471   0.888943
 Sum of Mulliken charges =  -2.00000   4.00000

 Dipole moment (field-independent basis, Debye):
    X=             -0.0000    Y=              0.0000    Z=             -0.0000  Tot=              0.0000
 Quadrupole moment (field-independent basis, Debye-Ang):
   XX=            -25.2665   YY=            -23.9245   ZZ=            -65.3127
   XY=             -0.0000   XZ=              0.0000   YZ=             -0.0000

 83\PMP3-0=-299.7307517\MP4SDQ=-299.7452879\CCSD=-299.7474001\CCSD(T)=-
 Normal termination of Gaussian 16 at Sat Jan  7 03:17:01 2023.
