 Gaussian 16, Revision A.03,
 Gaussian 16:  ES64L-G16RevA.03 25-Dec-2016

 ------------------------------------------------
 #p CCSD(T,MaxCyc=300)/cc-pVTZ Guess=Read SCF=XQC
 ------------------------------------------------

 --------
 O2_O2_45
 --------
 Symbolic Z-matrix:
 Charge = -2 Multiplicity = 5

                         Standard orientation:
 ---------------------------------------------------------------------
 Center     Atomic      Atomic             Coordinates (Angstroms)
 Number     Number       Type             X           Y           Z
 ---------------------------------------------------------------------
      1          8           0        0.000000    0.000000    1.111144
      2          8           0        0.000000    0.000000    2.463524
      3          8           0        0.000000    0.000000   -2.463524
      4          8           0        0.000000    0.000000   -1.111144
 ---------------------------------------------------------------------

 SCF Done:  E(UHF) =  -298.777272802     A.U. after   15 cycles
 E2 =    -0.1036513780D+01 EUMP2 =    -0.29981378658201D+03
 CCSD(T)
 CCSD(T)= -0.29985602132D+03

 Unable to determine electronic state:  an orbital has unidentified symmetry.
 Alpha  occ. eigenvalues --  -20.17177 -20.17173 -20.14221 -20.14220  -1.05881
 Alpha  occ. eigenvalues --   -1.05276  -0.70756  -0.67852  -0.24019  -0.23140
 Alpha  occ. eigenvalues --   -0.22796  -0.21966  -0.20819  -0.14761  -0.04298
 Alpha  occ. eigenvalues --   -0.02483  -0.01372   0.00147   0.41914
 Alpha virt. eigenvalues --    0.69653   1.10181   1.12992   1.13887   1.14582
 Alpha virt. eigenvalues --    1.17036   1.19051   1.20410   1.22412   1.34255
 Alpha virt. eigenvalues --    1.37053   1.37732   1.38180   1.39497   1.84497

  Beta  occ. eigenvalues --  -20.11395 -20.11393 -20.08743 -20.08743  -0.88870
  Beta  occ. eigenvalues --   -0.88017  -0.52093  -0.47738  -0.12739  -0.05609
  Beta  occ. eigenvalues --   -0.05502  -0.03948   0.02146   0.04050   0.25463
  Beta virt. eigenvalues --    0.49018   0.57924   0.61430   0.84705   0.90677
  Beta virt. eigenvalues --    1.19848   1.20416   1.22722   1.23507   1.24145
  Beta virt. eigenvalues --    1.28229   1.29093   1.33128   1.37751   1.40003

 Mulliken charges and spin densities:
               1          2
     1  O   -0.366261   0.967635
     2  O   -0.633739   1.032365
     3  O   -0.633739   1.032365
     4  O   -0.366261   0.967635
 Sum of Mulliken charges =  -2.00000   4.00000

 Dipole moment (field-independent basis, Debye):
    X=             -0.0000    Y=              0.0000    Z=             -0.0000  Tot=              0.0000
 Quadrupole moment (field-independent basis, Debye-Ang):
   XX=            -25.2945   YY=            -24.0181   ZZ=            -70.7207
   XY=             -0.0000   XZ=              0.0000   YZ=             -0.0000

 Normal termination of Gaussian 16 at Sat Jan  7 03:55:21 2023.
