 Gaussian 16, Revision A.03,
 Gaussian 16:  ES64L-G16RevA.03 25-Dec-2016

 ------------------------------------------------
 #p CCSD(T,MaxCyc=300)/cc-pVTZ Guess=Read SCF=XQC
 ------------------------------------------------

 ---------
 O2_O2_147
 ---------
 Symbolic Z-matrix:
 Charge = -2 Multiplicity = 5

                         Standard orientation:
 ---------------------------------------------------------------------
 Center     Atomic      Atomic             Coordinates (Angstroms)
 Number     Number       Type             X           Y           Z
 ---------------------------------------------------------------------
      1          8           0        0.000000    0.000000    1.833232
      2          8           0        0.000000    0.000000    3.185612
      3          8           0        0.000000    0.000000   -3.185612
      4          8           0        0.000000    0.000000   -1.833232
 ---------------------------------------------------------------------

 SCF Done:  E(UHF) =  -298.779216014     A.U. after   16 cycles
 E2 =    -0.1125476373D+01 EUMP2 =    -0.29990469238724D+03
 CCSD(T)
 CCSD(T)= -0.29991229409D+03

 Unable to determine electronic state:  an orbital has unidentified symmetry.
 Alpha  occ. eigenvalues --  -20.24081 -20.24080 -20.19507 -20.19507  -1.10522
 Alpha  occ. eigenvalues --   -1.10507  -0.74258  -0.74127  -0.29258  -0.29214
 Alpha  occ. eigenvalues --   -0.26555  -0.26512  -0.24166  -0.23062  -0.08503
 Alpha  occ. eigenvalues --   -0.08439  -0.05996  -0.05919   0.42200
 Alpha virt. eigenvalues --    0.58679   1.02335   1.11260   1.11413   1.12366
 Alpha virt. eigenvalues --    1.12812   1.13407   1.13626   1.19825   1.20964
 Alpha virt. eigenvalues --    1.21886   1.23178   1.31636   1.34733   1.34809

  Beta  occ. eigenvalues --  -20.18358 -20.18357 -20.14543 -20.14543  -0.94601
  Beta  occ. eigenvalues --   -0.94576  -0.55472  -0.55253  -0.15487  -0.15018
  Beta  occ. eigenvalues --   -0.09660  -0.09131  -0.02413  -0.02364   0.24707
  Beta virt. eigenvalues --    0.35877   0.54363   0.54723   0.76497   0.82418
  Beta virt. eigenvalues --    1.11029   1.17837   1.18690   1.19021   1.19740
  Beta virt. eigenvalues --    1.21132   1.21583   1.27800   1.29857   1.30690

 Mulliken charges and spin densities:
               1          2
     1  O   -0.371699   1.125267
     2  O   -0.628301   0.874733
     3  O   -0.628301   0.874733
     4  O   -0.371699   1.125267
 Sum of Mulliken charges =  -2.00000   4.00000

 Dipole moment (field-independent basis, Debye):
    X=             -0.0000    Y=              0.0000    Z=              0.0000  Tot=              0.0000
 Quadrupole moment (field-independent basis, Debye-Ang):
   XX=            -25.1679   YY=            -24.0080   ZZ=           -101.3730
   XY=             -0.0000   XZ=              0.0000   YZ=             -0.0000

 Normal termination of Gaussian 16 at Sat Jan  7 06:19:55 2023.
