 Gaussian 16, Revision A.03,
 Gaussian 16:  ES64L-G16RevA.03 25-Dec-2016

 ------------------------------------------------
 #p CCSD(T,MaxCyc=300)/cc-pVTZ Guess=Read SCF=XQC
 ------------------------------------------------

 ---------
 O2_O2_229
 ---------
 Symbolic Z-matrix:
 Charge = -2 Multiplicity = 5

                         Standard orientation:
 ---------------------------------------------------------------------
 Center     Atomic      Atomic             Coordinates (Angstroms)
 Number     Number       Type             X           Y           Z
 ---------------------------------------------------------------------
      1          8           0        0.000000    0.000000    2.413733
      2          8           0        0.000000    0.000000    3.766113
      3          8           0        0.000000    0.000000   -3.766113
      4          8           0        0.000000    0.000000   -2.413733
 ---------------------------------------------------------------------

 SCF Done:  E(UHF) =  -298.768837384     A.U. after   10 cycles
 E2 =    -0.1227237337D+01 EUMP2 =    -0.29999607472161D+03
 CCSD(T)
 CCSD(T)= -0.29994010409D+03

 Unable to determine electronic state:  an orbital has unidentified symmetry.
 Alpha  occ. eigenvalues --  -20.24582 -20.24582 -20.21365 -20.21365  -1.12083
 Alpha  occ. eigenvalues --   -1.12082  -0.76021  -0.76003  -0.30627  -0.30625
 Alpha  occ. eigenvalues --   -0.27953  -0.27950  -0.26179  -0.25838  -0.10084
 Alpha  occ. eigenvalues --   -0.10081  -0.07553  -0.07549   0.42801
 Alpha virt. eigenvalues --    0.52444   1.06078   1.07728   1.10204   1.10252
 Alpha virt. eigenvalues --    1.11561   1.11600   1.14365   1.15843   1.18889
 Alpha virt. eigenvalues --    1.18993   1.20081   1.20194   1.33127   1.33132

  Beta  occ. eigenvalues --  -20.18727 -20.18726 -20.16248 -20.16248  -0.95747
  Beta  occ. eigenvalues --   -0.95743  -0.56860  -0.56815  -0.16721  -0.16681
  Beta  occ. eigenvalues --   -0.10984  -0.10737  -0.03809  -0.03807   0.24435
  Beta virt. eigenvalues --    0.33105   0.52851   0.52868   0.77150   0.78084
  Beta virt. eigenvalues --    1.14887   1.15953   1.17766   1.17801   1.18185
  Beta virt. eigenvalues --    1.19328   1.19824   1.19843   1.26908   1.26989

 Mulliken charges and spin densities:
               1          2
     1  O   -0.396497   1.102639
     2  O   -0.603503   0.897361
     3  O   -0.603503   0.897361
     4  O   -0.396497   1.102639
 Sum of Mulliken charges =  -2.00000   4.00000

 Dipole moment (field-independent basis, Debye):
    X=             -0.0000    Y=             -0.0000    Z=             -0.0000  Tot=              0.0000
 Quadrupole moment (field-independent basis, Debye-Ang):
   XX=            -25.1361   YY=            -23.9715   ZZ=           -133.6669
   XY=             -0.0000   XZ=              0.0000   YZ=             -0.0000

 Normal termination of Gaussian 16 at Sat Jan  7 08:24:55 2023.
