 Gaussian 16, Revision A.03,
 Gaussian 16:  ES64L-G16RevA.03 25-Dec-2016

 ------------------------------------------------
 #p CCSD(T,MaxCyc=300)/cc-pVTZ Guess=Read SCF=XQC
 ------------------------------------------------

 --------
 O2_O2_12
 --------
 Symbolic Z-matrix:
 Charge = -2 Multiplicity = 5

                         Standard orientation:
 ---------------------------------------------------------------------
 Center     Atomic      Atomic             Coordinates (Angstroms)
 Number     Number       Type             X           Y           Z
 ---------------------------------------------------------------------
      1          8           0        0.000000    0.000000    0.877527
      2          8           0        0.000000    0.000000    2.229907
      3          8           0        0.000000    0.000000   -2.229907
      4          8           0        0.000000    0.000000   -0.877527
 ---------------------------------------------------------------------

 SCF Done:  E(UHF) =  -298.748174056     A.U. after   14 cycles
 E2 =    -0.9949023441D+00 EUMP2 =    -0.29974307639960D+03
 CCSD(T)
 CCSD(T)= -0.29979583256D+03

 Unable to determine electronic state:  an orbital has unidentified symmetry.
 Alpha  occ. eigenvalues --  -20.13065 -20.13053 -20.10897 -20.10897  -1.04560
 Alpha  occ. eigenvalues --   -1.02274  -0.72058  -0.63064  -0.24829  -0.22395
 Alpha  occ. eigenvalues --   -0.20763  -0.19999  -0.17248  -0.07544  -0.03175
 Alpha  occ. eigenvalues --    0.00093   0.02197   0.04168   0.40570
 Alpha virt. eigenvalues --    0.79095   1.10052   1.12183   1.16933   1.17862
 Alpha virt. eigenvalues --    1.18727   1.21191   1.23877   1.25662   1.38611
 Alpha virt. eigenvalues --    1.39355   1.42669   1.43024   1.52617   1.93536

  Beta  occ. eigenvalues --  -20.07485 -20.07478 -20.05111 -20.05111  -0.87347
  Beta  occ. eigenvalues --   -0.84090  -0.54745  -0.42303  -0.13603  -0.04275
  Beta  occ. eigenvalues --   -0.01249   0.01491   0.03600   0.07690   0.23509
  Beta virt. eigenvalues --    0.57214   0.59484   0.65744   0.87710   0.94935
  Beta virt. eigenvalues --    1.20690   1.22744   1.25259   1.26086   1.26401
  Beta virt. eigenvalues --    1.31328   1.33581   1.36976   1.40812   1.41481

 Mulliken charges and spin densities:
               1          2
     1  O   -0.343603   0.872564
     2  O   -0.656397   1.127436
     3  O   -0.656397   1.127436
     4  O   -0.343603   0.872564
 Sum of Mulliken charges =  -2.00000   4.00000

 Dipole moment (field-independent basis, Debye):
    X=             -0.0000    Y=              0.0000    Z=              0.0000  Tot=              0.0000
 Quadrupole moment (field-independent basis, Debye-Ang):
   XX=            -25.2422   YY=            -23.8887   ZZ=            -64.5345
   XY=             -0.0000   XZ=              0.0000   YZ=             -0.0000

 Normal termination of Gaussian 16 at Sat Jan  7 03:10:31 2023.
