 Gaussian 16, Revision A.03,
 Gaussian 16:  ES64L-G16RevA.03 25-Dec-2016

 ------------------------------------------------
 #p CCSD(T,MaxCyc=300)/cc-pVTZ Guess=Read SCF=XQC
 ------------------------------------------------

 ---------
 O2_O2_113
 ---------
 Symbolic Z-matrix:
 Charge = -2 Multiplicity = 5

                         Standard orientation:
 ---------------------------------------------------------------------
 Center     Atomic      Atomic             Coordinates (Angstroms)
 Number     Number       Type             X           Y           Z
 ---------------------------------------------------------------------
      1          8           0        0.000000    0.000000    1.592536
      2          8           0        0.000000    0.000000    2.944916
      3          8           0        0.000000    0.000000   -2.944916
      4          8           0        0.000000    0.000000   -1.592536
 ---------------------------------------------------------------------

 SCF Done:  E(UHF) =  -298.783358161     A.U. after   16 cycles
 E2 =    -0.1094356893D+01 EUMP2 =    -0.29987771505373D+03
 CCSD(T)
 CCSD(T)= -0.29989825435D+03

 Unable to determine electronic state:  an orbital has unidentified symmetry.
 Alpha  occ. eigenvalues --  -20.23165 -20.23164 -20.18162 -20.18162  -1.09370
 Alpha  occ. eigenvalues --   -1.09321  -0.73119  -0.72779  -0.28046  -0.27918
 Alpha  occ. eigenvalues --   -0.25488  -0.25358  -0.23217  -0.21196  -0.07464
 Alpha  occ. eigenvalues --   -0.07277  -0.04830  -0.04619   0.41757
 Alpha virt. eigenvalues --    0.62128   1.04327   1.11359   1.11770   1.13146
 Alpha virt. eigenvalues --    1.13480   1.13930   1.15180   1.19737   1.20914
 Alpha virt. eigenvalues --    1.25059   1.26390   1.35695   1.36007   1.48645

  Beta  occ. eigenvalues --  -20.17444 -20.17443 -20.13162 -20.13161  -0.93433
  Beta  occ. eigenvalues --   -0.93359  -0.54332  -0.53795  -0.14525  -0.13383
  Beta  occ. eigenvalues --   -0.08549  -0.07769  -0.01036  -0.00885   0.24995
  Beta virt. eigenvalues --    0.38288   0.55230   0.56126   0.78051   0.84651
  Beta virt. eigenvalues --    1.12328   1.18266   1.19502   1.19649   1.21125
  Beta virt. eigenvalues --    1.21831   1.23089   1.27727   1.30602   1.33162

 Mulliken charges and spin densities:
               1          2
     1  O   -0.363879   1.115663
     2  O   -0.636121   0.884337
     3  O   -0.636121   0.884337
     4  O   -0.363879   1.115663
 Sum of Mulliken charges =  -2.00000   4.00000

 Dipole moment (field-independent basis, Debye):
    X=             -0.0000    Y=             -0.0000    Z=              0.0000  Tot=              0.0000
 Quadrupole moment (field-independent basis, Debye-Ang):
   XX=            -25.1934   YY=            -24.0290   ZZ=            -89.5708
   XY=             -0.0000   XZ=              0.0000   YZ=             -0.0000

 Normal termination of Gaussian 16 at Sat Jan  7 05:29:18 2023.
