 Gaussian 16, Revision A.03,
 Gaussian 16:  ES64L-G16RevA.03 25-Dec-2016

 ------------------------------------------------
 #p CCSD(T,MaxCyc=300)/cc-pVTZ Guess=Read SCF=XQC
 ------------------------------------------------

 ---------
 O2_O2_228
 ---------
 Symbolic Z-matrix:
 Charge = -2 Multiplicity = 5

                         Standard orientation:
 ---------------------------------------------------------------------
 Center     Atomic      Atomic             Coordinates (Angstroms)
 Number     Number       Type             X           Y           Z
 ---------------------------------------------------------------------
      1          8           0        0.000000    0.000000    2.406654
      2          8           0        0.000000    0.000000    3.759034
      3          8           0        0.000000    0.000000   -3.759034
      4          8           0        0.000000    0.000000   -2.406654
 ---------------------------------------------------------------------

 SCF Done:  E(UHF) =  -298.768827765     A.U. after   10 cycles
 E2 =    -0.1226198586D+01 EUMP2 =    -0.29999502635086D+03
 CCSD(T)
 CCSD(T)= -0.29993982135D+03

 Unable to determine electronic state:  an orbital has unidentified symmetry.
 Alpha  occ. eigenvalues --  -20.24571 -20.24571 -20.21344 -20.21344  -1.12065
 Alpha  occ. eigenvalues --   -1.12064  -0.76002  -0.75984  -0.30611  -0.30608
 Alpha  occ. eigenvalues --   -0.27936  -0.27933  -0.26159  -0.25815  -0.10066
 Alpha  occ. eigenvalues --   -0.10062  -0.07535  -0.07531   0.42805
 Alpha virt. eigenvalues --    0.52490   1.06070   1.07776   1.10222   1.10271
 Alpha virt. eigenvalues --    1.11578   1.11619   1.14367   1.15896   1.18906
 Alpha virt. eigenvalues --    1.19014   1.20098   1.20215   1.33144   1.33149

  Beta  occ. eigenvalues --  -20.18715 -20.18715 -20.16229 -20.16229  -0.95731
  Beta  occ. eigenvalues --   -0.95727  -0.56843  -0.56798  -0.16704  -0.16663
  Beta  occ. eigenvalues --   -0.10967  -0.10719  -0.03793  -0.03790   0.24442
  Beta virt. eigenvalues --    0.33133   0.52869   0.52886   0.77154   0.78121
  Beta virt. eigenvalues --    1.14882   1.15984   1.17783   1.17819   1.18192
  Beta virt. eigenvalues --    1.19385   1.19841   1.19861   1.26925   1.27010

 Mulliken charges and spin densities:
               1          2
     1  O   -0.396227   1.102842
     2  O   -0.603773   0.897158
     3  O   -0.603773   0.897158
     4  O   -0.396227   1.102842
 Sum of Mulliken charges =  -2.00000   4.00000

 Dipole moment (field-independent basis, Debye):
    X=             -0.0000    Y=              0.0000    Z=              0.0000  Tot=              0.0000
 Quadrupole moment (field-independent basis, Debye-Ang):
   XX=            -25.1363   YY=            -23.9717   ZZ=           -133.2473
   XY=             -0.0000   XZ=              0.0000   YZ=             -0.0000

 3916\PMP3-0=-300.0009107\MP4SDQ=-299.6135701\CCSD=-299.817713\CCSD(T)=
 Normal termination of Gaussian 16 at Sat Jan  7 08:23:26 2023.
