 Gaussian 16, Revision A.03,
 Gaussian 16:  ES64L-G16RevA.03 25-Dec-2016

 ------------------------------------------------
 #p CCSD(T,MaxCyc=300)/cc-pVTZ Guess=Read SCF=XQC
 ------------------------------------------------

 ---------
 O2_O2_103
 ---------
 Symbolic Z-matrix:
 Charge = -2 Multiplicity = 5

                         Standard orientation:
 ---------------------------------------------------------------------
 Center     Atomic      Atomic             Coordinates (Angstroms)
 Number     Number       Type             X           Y           Z
 ---------------------------------------------------------------------
      1          8           0        0.000000    0.000000    1.521743
      2          8           0        0.000000    0.000000    2.874123
      3          8           0        0.000000    0.000000   -2.874123
      4          8           0        0.000000    0.000000   -1.521743
 ---------------------------------------------------------------------

 SCF Done:  E(UHF) =  -298.783055280     A.U. after   16 cycles
 E2 =    -0.1087790161D+01 EUMP2 =    -0.29987084544090D+03
 CCSD(T)
 CCSD(T)= -0.29989364874D+03

 Unable to determine electronic state:  an orbital has unidentified symmetry.
 Alpha  occ. eigenvalues --  -20.22510 -20.22509 -20.17730 -20.17730  -1.08900
 Alpha  occ. eigenvalues --   -1.08830  -0.72717  -0.72260  -0.27476  -0.27307
 Alpha  occ. eigenvalues --   -0.25027  -0.24849  -0.22977  -0.20541  -0.07094
 Alpha  occ. eigenvalues --   -0.06832  -0.04364  -0.04082   0.41747
 Alpha virt. eigenvalues --    0.63033   1.06473   1.11195   1.11926   1.13223
 Alpha virt. eigenvalues --    1.13512   1.14418   1.15734   1.19649   1.20922
 Alpha virt. eigenvalues --    1.26459   1.27740   1.36084   1.36466   1.54613

  Beta  occ. eigenvalues --  -20.16780 -20.16779 -20.12666 -20.12666  -0.92865
  Beta  occ. eigenvalues --   -0.92760  -0.53863  -0.53145  -0.14126  -0.12629
  Beta  occ. eigenvalues --   -0.08117  -0.07254  -0.00424  -0.00201   0.25142
  Beta virt. eigenvalues --    0.39424   0.55542   0.56659   0.78926   0.85410
  Beta virt. eigenvalues --    1.13944   1.18353   1.19858   1.19931   1.21552
  Beta virt. eigenvalues --    1.22036   1.23751   1.27678   1.30656   1.34636

 Mulliken charges and spin densities:
               1          2
     1  O   -0.366941   1.098366
     2  O   -0.633059   0.901634
     3  O   -0.633059   0.901634
     4  O   -0.366941   1.098366
 Sum of Mulliken charges =  -2.00000   4.00000

 Dipole moment (field-independent basis, Debye):
    X=             -0.0000    Y=              0.0000    Z=             -0.0000  Tot=              0.0000
 Quadrupole moment (field-independent basis, Debye-Ang):
   XX=            -25.2037   YY=            -24.0351   ZZ=            -86.2359
   XY=             -0.0000   XZ=              0.0000   YZ=             -0.0000

 Normal termination of Gaussian 16 at Sat Jan  7 05:15:11 2023.
