 Gaussian 16, Revision A.03,
 Gaussian 16:  ES64L-G16RevA.03 25-Dec-2016

 ------------------------------------------------
 #p CCSD(T,MaxCyc=300)/cc-pVTZ Guess=Read SCF=XQC
 ------------------------------------------------

 ---------
 O2_O2_245
 ---------
 Symbolic Z-matrix:
 Charge = -2 Multiplicity = 5

                         Standard orientation:
 ---------------------------------------------------------------------
 Center     Atomic      Atomic             Coordinates (Angstroms)
 Number     Number       Type             X           Y           Z
 ---------------------------------------------------------------------
      1          8           0        0.000000    0.000000    2.527002
      2          8           0        0.000000    0.000000    3.879382
      3          8           0        0.000000    0.000000   -3.879382
      4          8           0        0.000000    0.000000   -2.527002
 ---------------------------------------------------------------------

 SCF Done:  E(UHF) =  -298.769261003     A.U. after   16 cycles
 E2 =    -0.1243110594D+01 EUMP2 =    -0.30001237159699D+03
 CCSD(T)
 CCSD(T)= -0.29994443248D+03

 Unable to determine electronic state:  an orbital has unidentified symmetry.
 Alpha  occ. eigenvalues --  -20.24776 -20.24775 -20.21693 -20.21693  -1.12361
 Alpha  occ. eigenvalues --   -1.12361  -0.76318  -0.76305  -0.30891  -0.30890
 Alpha  occ. eigenvalues --   -0.28222  -0.28221  -0.26486  -0.26196  -0.10375
 Alpha  occ. eigenvalues --   -0.10373  -0.07839  -0.07837   0.42728
 Alpha virt. eigenvalues --    0.51782   1.06107   1.07039   1.09931   1.09955
 Alpha virt. eigenvalues --    1.11287   1.11308   1.14277   1.15151   1.18615
 Alpha virt. eigenvalues --    1.18672   1.19807   1.19870   1.32848   1.32853

  Beta  occ. eigenvalues --  -20.18921 -20.18921 -20.16557 -20.16557  -0.96003
  Beta  occ. eigenvalues --   -0.96000  -0.57133  -0.57096  -0.16991  -0.16969
  Beta  occ. eigenvalues --   -0.11246  -0.11027  -0.04072  -0.04071   0.24328
  Beta virt. eigenvalues --    0.32662   0.52561   0.52569   0.77035   0.77556
  Beta virt. eigenvalues --    1.14873   1.15478   1.17493   1.17510   1.18041
  Beta virt. eigenvalues --    1.18605   1.19557   1.19566   1.26637   1.26675

 Mulliken charges and spin densities:
               1          2
     1  O   -0.400724   1.099453
     2  O   -0.599276   0.900547
     3  O   -0.599276   0.900547
     4  O   -0.400724   1.099453
 Sum of Mulliken charges =  -2.00000   4.00000

 Dipole moment (field-independent basis, Debye):
    X=             -0.0000    Y=              0.0000    Z=              0.0000  Tot=              0.0000
 Quadrupole moment (field-independent basis, Debye-Ang):
   XX=            -25.1334   YY=            -23.9686   ZZ=           -140.4905
   XY=             -0.0000   XZ=              0.0000   YZ=             -0.0000

 Normal termination of Gaussian 16 at Sat Jan  7 08:49:46 2023.
