 Gaussian 16, Revision A.03,
 Gaussian 16:  ES64L-G16RevA.03 25-Dec-2016

 ------------------------------------------------
 #p CCSD(T,MaxCyc=300)/cc-pVTZ Guess=Read SCF=XQC
 ------------------------------------------------

 ---------
 O2_O2_172
 ---------
 Symbolic Z-matrix:
 Charge = -2 Multiplicity = 5

                         Standard orientation:
 ---------------------------------------------------------------------
 Center     Atomic      Atomic             Coordinates (Angstroms)
 Number     Number       Type             X           Y           Z
 ---------------------------------------------------------------------
      1          8           0        0.000000    0.000000    2.010214
      2          8           0        0.000000    0.000000    3.362594
      3          8           0        0.000000    0.000000   -3.362594
      4          8           0        0.000000    0.000000   -2.010214
 ---------------------------------------------------------------------

 SCF Done:  E(UHF) =  -298.773703240     A.U. after   16 cycles
 E2 =    -0.1158023328D+01 EUMP2 =    -0.29993172656744D+03
 CCSD(T)
 CCSD(T)= -0.29992164704D+03

 Unable to determine electronic state:  an orbital has unidentified symmetry.
 Alpha  occ. eigenvalues --  -20.24183 -20.24182 -20.20170 -20.20170  -1.11060
 Alpha  occ. eigenvalues --   -1.11054  -0.74874  -0.74807  -0.29721  -0.29702
 Alpha  occ. eigenvalues --   -0.27020  -0.27002  -0.24868  -0.24138  -0.09040
 Alpha  occ. eigenvalues --   -0.09011  -0.06530  -0.06496   0.42603
 Alpha virt. eigenvalues --    0.56185   1.03758   1.10628   1.11112   1.11540
 Alpha virt. eigenvalues --    1.12485   1.12845   1.13715   1.19693   1.20595
 Alpha virt. eigenvalues --    1.20862   1.21838   1.23380   1.34174   1.34212

  Beta  occ. eigenvalues --  -20.18401 -20.18401 -20.15155 -20.15155  -0.94970
  Beta  occ. eigenvalues --   -0.94958  -0.55940  -0.55816  -0.15875  -0.15634
  Beta  occ. eigenvalues --   -0.10106  -0.09700  -0.02900  -0.02878   0.24653
  Beta virt. eigenvalues --    0.34855   0.53876   0.54036   0.76640   0.80910
  Beta virt. eigenvalues --    1.12564   1.17446   1.18406   1.18672   1.19004
  Beta virt. eigenvalues --    1.20737   1.20935   1.26975   1.27686   1.28561

 Mulliken charges and spin densities:
               1          2
     1  O   -0.380049   1.116886
     2  O   -0.619951   0.883114
     3  O   -0.619951   0.883114
     4  O   -0.380049   1.116886
 Sum of Mulliken charges =  -2.00000   4.00000

 Dipole moment (field-independent basis, Debye):
    X=             -0.0000    Y=              0.0000    Z=             -0.0000  Tot=              0.0000
 Quadrupole moment (field-independent basis, Debye-Ang):
   XX=            -25.1547   YY=            -23.9938   ZZ=           -110.7926
   XY=             -0.0000   XZ=              0.0000   YZ=             -0.0000

 Normal termination of Gaussian 16 at Sat Jan  7 06:57:03 2023.
