 Gaussian 16, Revision A.03,
 Gaussian 16:  ES64L-G16RevA.03 25-Dec-2016

 ------------------------------------------------
 #p CCSD(T,MaxCyc=300)/cc-pVTZ Guess=Read SCF=XQC
 ------------------------------------------------

 ---------
 O2_O2_275
 ---------
 Symbolic Z-matrix:
 Charge = -2 Multiplicity = 5

                         Standard orientation:
 ---------------------------------------------------------------------
 Center     Atomic      Atomic             Coordinates (Angstroms)
 Number     Number       Type             X           Y           Z
 ---------------------------------------------------------------------
      1          8           0        0.000000    0.000000    2.739381
      2          8           0        0.000000    0.000000    4.091761
      3          8           0        0.000000    0.000000   -4.091761
      4          8           0        0.000000    0.000000   -2.739381
 ---------------------------------------------------------------------

 SCF Done:  E(UHF) =  -298.770896692     A.U. after   15 cycles
 E2 =    -0.1269978846D+01 EUMP2 =    -0.30004087553838D+03
 CCSD(T)
 CCSD(T)= -0.29995163816D+03

 Unable to determine electronic state:  an orbital has unidentified symmetry.
 Alpha  occ. eigenvalues --  -20.25162 -20.25161 -20.22288 -20.22287  -1.12859
 Alpha  occ. eigenvalues --   -1.12858  -0.76842  -0.76833  -0.31370  -0.31369
 Alpha  occ. eigenvalues --   -0.28711  -0.28711  -0.27007  -0.26782  -0.10899
 Alpha  occ. eigenvalues --   -0.10898  -0.08352  -0.08351   0.42538
 Alpha virt. eigenvalues --    0.50788   1.05838   1.06119   1.09438   1.09446
 Alpha virt. eigenvalues --    1.10795   1.10802   1.13914   1.14304   1.18113
 Alpha virt. eigenvalues --    1.18137   1.19306   1.19331   1.32356   1.32359

  Beta  occ. eigenvalues --  -20.19322 -20.19322 -20.17120 -20.17120  -0.96486
  Beta  occ. eigenvalues --   -0.96484  -0.57633  -0.57606  -0.17493  -0.17486
  Beta  occ. eigenvalues --   -0.11729  -0.11551  -0.04547  -0.04547   0.24108
  Beta virt. eigenvalues --    0.31889   0.52040   0.52042   0.76657   0.76805
  Beta virt. eigenvalues --    1.14563   1.14741   1.16998   1.17003   1.17630
  Beta virt. eigenvalues --    1.17762   1.19076   1.19078   1.26139   1.26147

 Mulliken charges and spin densities:
               1          2
     1  O   -0.408064   1.093781
     2  O   -0.591936   0.906219
     3  O   -0.591936   0.906219
     4  O   -0.408064   1.093781
 Sum of Mulliken charges =  -2.00000   4.00000

 Dipole moment (field-independent basis, Debye):
    X=             -0.0000    Y=              0.0000    Z=              0.0000  Tot=              0.0000
 Quadrupole moment (field-independent basis, Debye-Ang):
   XX=            -25.1300   YY=            -23.9655   ZZ=           -153.8843
   XY=             -0.0000   XZ=              0.0000   YZ=             -0.0000

 Normal termination of Gaussian 16 at Sat Jan  7 09:37:44 2023.
