 Gaussian 16, Revision A.03,
 Gaussian 16:  ES64L-G16RevA.03 25-Dec-2016

 ------------------------------------------------
 #p CCSD(T,MaxCyc=300)/cc-pVTZ Guess=Read SCF=XQC
 ------------------------------------------------

 --------
 O2_O2_85
 --------
 Symbolic Z-matrix:
 Charge = -2 Multiplicity = 5

                         Standard orientation:
 ---------------------------------------------------------------------
 Center     Atomic      Atomic             Coordinates (Angstroms)
 Number     Number       Type             X           Y           Z
 ---------------------------------------------------------------------
      1          8           0        0.000000    0.000000    1.394315
      2          8           0        0.000000    0.000000    2.746695
      3          8           0        0.000000    0.000000   -2.746695
      4          8           0        0.000000    0.000000   -1.394315
 ---------------------------------------------------------------------

 SCF Done:  E(UHF) =  -298.781591837     A.U. after   14 cycles
 E2 =    -0.1074371720D+01 EUMP2 =    -0.29985596355659D+03
 CCSD(T)
 CCSD(T)= -0.29988448236D+03

 Unable to determine electronic state:  an orbital has unidentified symmetry.
 Alpha  occ. eigenvalues --  -20.20932 -20.20931 -20.16874 -20.16874  -1.07950
 Alpha  occ. eigenvalues --   -1.07817  -0.71943  -0.71151  -0.26338  -0.26061
 Alpha  occ. eigenvalues --   -0.24059  -0.23744  -0.22626  -0.19177  -0.06281
 Alpha  occ. eigenvalues --   -0.05793  -0.03426  -0.02951   0.41854
 Alpha virt. eigenvalues --    0.64669   1.10783   1.12296   1.12476   1.13377
 Alpha virt. eigenvalues --    1.13509   1.15231   1.16763   1.19527   1.21051
 Alpha virt. eigenvalues --    1.29525   1.30620   1.36813   1.37351   1.65525

  Beta  occ. eigenvalues --  -20.15195 -20.15194 -20.11666 -20.11666  -0.91651
  Beta  occ. eigenvalues --   -0.91452  -0.52994  -0.51760  -0.13391  -0.10941
  Beta  occ. eigenvalues --   -0.07338  -0.06322   0.00617   0.01073   0.25476
  Beta virt. eigenvalues --    0.41970   0.56245   0.57849   0.80747   0.86907
  Beta virt. eigenvalues --    1.17817   1.18541   1.20567   1.21346   1.22297
  Beta virt. eigenvalues --    1.22313   1.25109   1.27668   1.31005   1.37798

 Mulliken charges and spin densities:
               1          2
     1  O   -0.375148   1.055544
     2  O   -0.624852   0.944456
     3  O   -0.624852   0.944456
     4  O   -0.375148   1.055544
 Sum of Mulliken charges =  -2.00000   4.00000

 Dipole moment (field-independent basis, Debye):
    X=             -0.0000    Y=              0.0000    Z=             -0.0000  Tot=              0.0000
 Quadrupole moment (field-independent basis, Debye-Ang):
   XX=            -25.2260   YY=            -24.0359   ZZ=            -80.5815
   XY=             -0.0000   XZ=              0.0000   YZ=             -0.0000

 21\PMP3-0=-299.8153086\MP4SDQ=-299.8023602\CCSD=-299.7983199\CCSD(T)=-
 Normal termination of Gaussian 16 at Sat Jan  7 04:50:34 2023.
