 Gaussian 16, Revision A.03,
 Gaussian 16:  ES64L-G16RevA.03 25-Dec-2016

 ------------------------------------------------
 #p CCSD(T,MaxCyc=300)/cc-pVTZ Guess=Read SCF=XQC
 ------------------------------------------------

 ---------
 O2_O2_260
 ---------
 Symbolic Z-matrix:
 Charge = -2 Multiplicity = 5

                         Standard orientation:
 ---------------------------------------------------------------------
 Center     Atomic      Atomic             Coordinates (Angstroms)
 Number     Number       Type             X           Y           Z
 ---------------------------------------------------------------------
      1          8           0        0.000000    0.000000    2.633191
      2          8           0        0.000000    0.000000    3.985571
      3          8           0        0.000000    0.000000   -3.985571
      4          8           0        0.000000    0.000000   -2.633191
 ---------------------------------------------------------------------

 SCF Done:  E(UHF) =  -298.769989809     A.U. after    9 cycles
 E2 =    -0.1256920727D+01 EUMP2 =    -0.30002691053641D+03
 CCSD(T)
 CCSD(T)= -0.29994817195D+03

 Unable to determine electronic state:  an orbital has unidentified symmetry.
 Alpha  occ. eigenvalues --  -20.24968 -20.24967 -20.21995 -20.21995  -1.12615
 Alpha  occ. eigenvalues --   -1.12614  -0.76586  -0.76575  -0.31134  -0.31133
 Alpha  occ. eigenvalues --   -0.28470  -0.28469  -0.26755  -0.26501  -0.10641
 Alpha  occ. eigenvalues --   -0.10640  -0.08100  -0.08099   0.42638
 Alpha virt. eigenvalues --    0.51253   1.06007   1.06528   1.09680   1.09694
 Alpha virt. eigenvalues --    1.11037   1.11048   1.14116   1.14679   1.18360
 Alpha virt. eigenvalues --    1.18396   1.19553   1.19591   1.32597   1.32600

  Beta  occ. eigenvalues --  -20.19120 -20.19119 -20.16842 -20.16842  -0.96246
  Beta  occ. eigenvalues --   -0.96244  -0.57387  -0.57355  -0.17245  -0.17232
  Beta  occ. eigenvalues --   -0.11491  -0.11294  -0.04314  -0.04313   0.24219
  Beta virt. eigenvalues --    0.32266   0.52296   0.52300   0.76864   0.77148
  Beta virt. eigenvalues --    1.14747   1.15083   1.17241   1.17250   1.17852
  Beta virt. eigenvalues --    1.18130   1.19313   1.19317   1.26385   1.26402

 Mulliken charges and spin densities:
               1          2
     1  O   -0.404488   1.096579
     2  O   -0.595512   0.903421
     3  O   -0.595512   0.903421
     4  O   -0.404488   1.096579
 Sum of Mulliken charges =  -2.00000   4.00000

 Dipole moment (field-independent basis, Debye):
    X=             -0.0000    Y=              0.0000    Z=              0.0000  Tot=              0.0000
 Quadrupole moment (field-independent basis, Debye-Ang):
   XX=            -25.1315   YY=            -23.9667   ZZ=           -147.0864
   XY=             -0.0000   XZ=              0.0000   YZ=             -0.0000

 Normal termination of Gaussian 16 at Sat Jan  7 09:13:56 2023.
