 Gaussian 16, Revision A.03,
 Gaussian 16:  ES64L-G16RevA.03 25-Dec-2016

 ------------------------------------------------
 #p CCSD(T,MaxCyc=300)/cc-pVTZ Guess=Read SCF=XQC
 ------------------------------------------------

 ---------
 O2_O2_102
 ---------
 Symbolic Z-matrix:
 Charge = -2 Multiplicity = 5

                         Standard orientation:
 ---------------------------------------------------------------------
 Center     Atomic      Atomic             Coordinates (Angstroms)
 Number     Number       Type             X           Y           Z
 ---------------------------------------------------------------------
      1          8           0        0.000000    0.000000    1.514663
      2          8           0        0.000000    0.000000    2.867043
      3          8           0        0.000000    0.000000   -2.867043
      4          8           0        0.000000    0.000000   -1.514663
 ---------------------------------------------------------------------

 SCF Done:  E(UHF) =  -298.782996130     A.U. after   16 cycles
 E2 =    -0.1087112722D+01 EUMP2 =    -0.29987010885252D+03
 CCSD(T)
 CCSD(T)= -0.29989317121D+03

 Unable to determine electronic state:  an orbital has unidentified symmetry.
 Alpha  occ. eigenvalues --  -20.22432 -20.22431 -20.17688 -20.17687  -1.08849
 Alpha  occ. eigenvalues --   -1.08777  -0.72675  -0.72204  -0.27414  -0.27240
 Alpha  occ. eigenvalues --   -0.24977  -0.24793  -0.22954  -0.20472  -0.07055
 Alpha  occ. eigenvalues --   -0.06783  -0.04314  -0.04025   0.41750
 Alpha virt. eigenvalues --    0.63122   1.06736   1.11174   1.11945   1.13231
 Alpha virt. eigenvalues --    1.13512   1.14465   1.15791   1.19640   1.20925
 Alpha virt. eigenvalues --    1.26614   1.27886   1.36124   1.36514   1.55224

  Beta  occ. eigenvalues --  -20.16701 -20.16700 -20.12615 -20.12615  -0.92803
  Beta  occ. eigenvalues --   -0.92694  -0.53814  -0.53074  -0.14084  -0.12546
  Beta  occ. eigenvalues --   -0.08073  -0.07203  -0.00362  -0.00130   0.25159
  Beta virt. eigenvalues --    0.39551   0.55576   0.56717   0.79021   0.85489
  Beta virt. eigenvalues --    1.14139   1.18361   1.19900   1.19962   1.21593
  Beta virt. eigenvalues --    1.22055   1.23822   1.27674   1.30666   1.34797

 Mulliken charges and spin densities:
               1          2
     1  O   -0.367444   1.096174
     2  O   -0.632556   0.903826
     3  O   -0.632556   0.903826
     4  O   -0.367444   1.096174
 Sum of Mulliken charges =  -2.00000   4.00000

 Dipole moment (field-independent basis, Debye):
    X=             -0.0000    Y=              0.0000    Z=              0.0000  Tot=              0.0000
 Quadrupole moment (field-independent basis, Debye-Ang):
   XX=            -25.2047   YY=            -24.0355   ZZ=            -85.9038
   XY=             -0.0000   XZ=              0.0000   YZ=             -0.0000

 Normal termination of Gaussian 16 at Sat Jan  7 05:13:49 2023.
