 Gaussian 16, Revision A.03,
 Gaussian 16:  ES64L-G16RevA.03 25-Dec-2016

 ------------------------------------------------
 #p CCSD(T,MaxCyc=300)/cc-pVTZ Guess=Read SCF=XQC
 ------------------------------------------------

 ---------
 O2_O2_211
 ---------
 Symbolic Z-matrix:
 Charge = -2 Multiplicity = 5

                         Standard orientation:
 ---------------------------------------------------------------------
 Center     Atomic      Atomic             Coordinates (Angstroms)
 Number     Number       Type             X           Y           Z
 ---------------------------------------------------------------------
      1          8           0        0.000000    0.000000    2.286306
      2          8           0        0.000000    0.000000    3.638686
      3          8           0        0.000000    0.000000   -3.638686
      4          8           0        0.000000    0.000000   -2.286306
 ---------------------------------------------------------------------

 SCF Done:  E(UHF) =  -298.769074449     A.U. after   12 cycles
 E2 =    -0.1207574073D+01 EUMP2 =    -0.29997664852204D+03
 CCSD(T)
 CCSD(T)= -0.29993478324D+03

 Unable to determine electronic state:  an orbital has unidentified symmetry.
 Alpha  occ. eigenvalues --  -20.24396 -20.24395 -20.20993 -20.20993  -1.11764
 Alpha  occ. eigenvalues --   -1.11763  -0.75674  -0.75649  -0.30333  -0.30328
 Alpha  occ. eigenvalues --   -0.27651  -0.27646  -0.25806  -0.25386  -0.09755
 Alpha  occ. eigenvalues --   -0.09748  -0.07230  -0.07222   0.42836
 Alpha virt. eigenvalues --    0.53353   1.05778   1.08673   1.10512   1.10610
 Alpha virt. eigenvalues --    1.11869   1.11952   1.14313   1.17062   1.19188
 Alpha virt. eigenvalues --    1.19397   1.20378   1.20605   1.33452   1.33454

  Beta  occ. eigenvalues --  -20.18548 -20.18548 -20.15902 -20.15902  -0.95472
  Beta  occ. eigenvalues --   -0.95468  -0.56558  -0.56499  -0.16429  -0.16355
  Beta  occ. eigenvalues --   -0.10694  -0.10409  -0.03515  -0.03510   0.24537
  Beta virt. eigenvalues --    0.33624   0.53178   0.53215   0.77150   0.78821
  Beta virt. eigenvalues --    1.14633   1.16507   1.18070   1.18146   1.18265
  Beta virt. eigenvalues --    1.20124   1.20167   1.20638   1.27202   1.27385

 Mulliken charges and spin densities:
               1          2
     1  O   -0.391539   1.106421
     2  O   -0.608461   0.893579
     3  O   -0.608461   0.893579
     4  O   -0.391539   1.106421
 Sum of Mulliken charges =  -2.00000   4.00000

 Dipole moment (field-independent basis, Debye):
    X=             -0.0000    Y=              0.0000    Z=              0.0000  Tot=              0.0000
 Quadrupole moment (field-independent basis, Debye-Ang):
   XX=            -25.1402   YY=            -23.9763   ZZ=           -126.2261
   XY=             -0.0000   XZ=              0.0000   YZ=             -0.0000

 Normal termination of Gaussian 16 at Sat Jan  7 07:57:10 2023.
