 Gaussian 16, Revision A.03,
 Gaussian 16:  ES64L-G16RevA.03 25-Dec-2016

 ------------------------------------------------
 #p CCSD(T,MaxCyc=300)/cc-pVTZ Guess=Read SCF=XQC
 ------------------------------------------------

 ---------
 O2_O2_220
 ---------
 Symbolic Z-matrix:
 Charge = -2 Multiplicity = 5

                         Standard orientation:
 ---------------------------------------------------------------------
 Center     Atomic      Atomic             Coordinates (Angstroms)
 Number     Number       Type             X           Y           Z
 ---------------------------------------------------------------------
      1          8           0        0.000000    0.000000    2.350020
      2          8           0        0.000000    0.000000    3.702400
      3          8           0        0.000000    0.000000   -3.702400
      4          8           0        0.000000    0.000000   -2.350020
 ---------------------------------------------------------------------

 SCF Done:  E(UHF) =  -298.768840319     A.U. after   11 cycles
 E2 =    -0.1217667479D+01 EUMP2 =    -0.29998650779789D+03
 CCSD(T)
 CCSD(T)= -0.29993750653D+03

 Unable to determine electronic state:  an orbital has unidentified symmetry.
 Alpha  occ. eigenvalues --  -20.24484 -20.24483 -20.21179 -20.21179  -1.11924
 Alpha  occ. eigenvalues --   -1.11923  -0.75849  -0.75828  -0.30479  -0.30476
 Alpha  occ. eigenvalues --   -0.27801  -0.27798  -0.25997  -0.25620  -0.09919
 Alpha  occ. eigenvalues --   -0.09914  -0.07392  -0.07386   0.42826
 Alpha virt. eigenvalues --    0.52874   1.05971   1.08182   1.10359   1.10427
 Alpha virt. eigenvalues --    1.11716   1.11773   1.14362   1.16375   1.19041
 Alpha virt. eigenvalues --    1.19188   1.20232   1.20392   1.33288   1.33292

  Beta  occ. eigenvalues --  -20.18630 -20.18630 -20.16075 -20.16075  -0.95607
  Beta  occ. eigenvalues --   -0.95603  -0.56708  -0.56657  -0.16573  -0.16518
  Beta  occ. eigenvalues --   -0.10837  -0.10573  -0.03662  -0.03658   0.24489
  Beta virt. eigenvalues --    0.33361   0.53015   0.53040   0.77169   0.78432
  Beta virt. eigenvalues --    1.14806   1.16233   1.17919   1.17971   1.18234
  Beta virt. eigenvalues --    1.19898   1.19974   1.20004   1.27058   1.27180

 Mulliken charges and spin densities:
               1          2
     1  O   -0.394043   1.104492
     2  O   -0.605957   0.895508
     3  O   -0.605957   0.895508
     4  O   -0.394043   1.104492
 Sum of Mulliken charges =  -2.00000   4.00000

 Dipole moment (field-independent basis, Debye):
    X=             -0.0000    Y=              0.0000    Z=             -0.0000  Tot=              0.0000
 Quadrupole moment (field-independent basis, Debye-Ang):
   XX=            -25.1380   YY=            -23.9737   ZZ=           -129.9172
   XY=             -0.0000   XZ=              0.0000   YZ=             -0.0000

 Normal termination of Gaussian 16 at Sat Jan  7 08:10:57 2023.
