 Gaussian 16, Revision A.03,
 Gaussian 16:  ES64L-G16RevA.03 25-Dec-2016

 ------------------------------------------------
 #p CCSD(T,MaxCyc=300)/cc-pVTZ Guess=Read SCF=XQC
 ------------------------------------------------

 --------
 O2_O2_28
 --------
 Symbolic Z-matrix:
 Charge = -2 Multiplicity = 5

                         Standard orientation:
 ---------------------------------------------------------------------
 Center     Atomic      Atomic             Coordinates (Angstroms)
 Number     Number       Type             X           Y           Z
 ---------------------------------------------------------------------
      1          8           0        0.000000    0.000000    0.990795
      2          8           0        0.000000    0.000000    2.343176
      3          8           0        0.000000    0.000000   -2.343176
      4          8           0        0.000000    0.000000   -0.990795
 ---------------------------------------------------------------------

 SCF Done:  E(UHF) =  -298.769628198     A.U. after   13 cycles
 E2 =    -0.1016316744D+01 EUMP2 =    -0.29978594494230D+03
 CCSD(T)
 CCSD(T)= -0.29983369156D+03

 Unable to determine electronic state:  an orbital has unidentified symmetry.
 Alpha  occ. eigenvalues --  -20.15232 -20.15226 -20.12731 -20.12731  -1.05083
 Alpha  occ. eigenvalues --   -1.03899  -0.70928  -0.65751  -0.23543  -0.23113
 Alpha  occ. eigenvalues --   -0.21658  -0.21204  -0.19187  -0.11667  -0.03594
 Alpha  occ. eigenvalues --   -0.00575  -0.00425   0.01942   0.41531
 Alpha virt. eigenvalues --    0.73451   1.09999   1.12570   1.15399   1.16107
 Alpha virt. eigenvalues --    1.17853   1.20085   1.21709   1.23723   1.38552
 Alpha virt. eigenvalues --    1.39104   1.40075   1.40585   1.45641   1.90092

  Beta  occ. eigenvalues --  -20.09507 -20.09503 -20.07112 -20.07112  -0.87847
  Beta  occ. eigenvalues --   -0.86195  -0.52797  -0.45297  -0.13057  -0.04888
  Beta  occ. eigenvalues --   -0.02702  -0.01718   0.02226   0.05701   0.24783
  Beta virt. eigenvalues --    0.52893   0.58669   0.63442   0.86304   0.92636
  Beta virt. eigenvalues --    1.20669   1.20959   1.24054   1.24860   1.25055
  Beta virt. eigenvalues --    1.29706   1.31006   1.34835   1.40504   1.41233

 Mulliken charges and spin densities:
               1          2
     1  O   -0.356493   0.922980
     2  O   -0.643507   1.077020
     3  O   -0.643507   1.077020
     4  O   -0.356493   0.922980
 Sum of Mulliken charges =  -2.00000   4.00000

 Dipole moment (field-independent basis, Debye):
    X=             -0.0000    Y=              0.0000    Z=              0.0000  Tot=              0.0000
 Quadrupole moment (field-independent basis, Debye-Ang):
   XX=            -25.2953   YY=            -23.9788   ZZ=            -67.2647
   XY=             -0.0000   XZ=              0.0000   YZ=             -0.0000

 Normal termination of Gaussian 16 at Sat Jan  7 03:31:46 2023.
