 Gaussian 16, Revision A.03,
 Gaussian 16:  ES64L-G16RevA.03 25-Dec-2016

 ------------------------------------------------
 #p CCSD(T,MaxCyc=300)/cc-pVTZ Guess=Read SCF=XQC
 ------------------------------------------------

 ---------
 O2_O2_293
 ---------
 Symbolic Z-matrix:
 Charge = -2 Multiplicity = 5

                         Standard orientation:
 ---------------------------------------------------------------------
 Center     Atomic      Atomic             Coordinates (Angstroms)
 Number     Number       Type             X           Y           Z
 ---------------------------------------------------------------------
      1          8           0        0.000000    0.000000    2.866808
      2          8           0        0.000000    0.000000    4.219188
      3          8           0        0.000000    0.000000   -4.219188
      4          8           0        0.000000    0.000000   -2.866808
 ---------------------------------------------------------------------

 SCF Done:  E(UHF) =  -298.772087985     A.U. after   14 cycles
 E2 =    -0.1284984032D+01 EUMP2 =    -0.30005707201729D+03
 CCSD(T)
 CCSD(T)= -0.29995548699D+03

 Unable to determine electronic state:  an orbital has unidentified symmetry.
 Alpha  occ. eigenvalues --  -20.25390 -20.25390 -20.22622 -20.22622  -1.13137
 Alpha  occ. eigenvalues --   -1.13137  -0.77132  -0.77125  -0.31640  -0.31639
 Alpha  occ. eigenvalues --   -0.28987  -0.28987  -0.27290  -0.27093  -0.11193
 Alpha  occ. eigenvalues --   -0.11193  -0.08640  -0.08639   0.42413
 Alpha virt. eigenvalues --    0.50294   1.05590   1.05722   1.09161   1.09166
 Alpha virt. eigenvalues --    1.10519   1.10523   1.13649   1.13928   1.17831
 Alpha virt. eigenvalues --    1.17847   1.19023   1.19041   1.32082   1.32084

  Beta  occ. eigenvalues --  -20.19562 -20.19562 -20.17439 -20.17439  -0.96763
  Beta  occ. eigenvalues --   -0.96761  -0.57916  -0.57892  -0.17780  -0.17776
  Beta  occ. eigenvalues --   -0.12003  -0.11844  -0.04814  -0.04814   0.23976
  Beta virt. eigenvalues --    0.31461   0.51748   0.51749   0.76389   0.76453
  Beta virt. eigenvalues --    1.14309   1.14389   1.16720   1.16722   1.17348
  Beta virt. eigenvalues --    1.17401   1.18806   1.18806   1.25858   1.25861

 Mulliken charges and spin densities:
               1          2
     1  O   -0.412059   1.090591
     2  O   -0.587941   0.909409
     3  O   -0.587941   0.909409
     4  O   -0.412059   1.090591
 Sum of Mulliken charges =  -2.00000   4.00000

 Dipole moment (field-independent basis, Debye):
    X=             -0.0000    Y=             -0.0000    Z=              0.0000  Tot=              0.0000
 Quadrupole moment (field-independent basis, Debye-Ang):
   XX=            -25.1286   YY=            -23.9645   ZZ=           -162.3217
   XY=             -0.0000   XZ=              0.0000   YZ=             -0.0000

 Normal termination of Gaussian 16 at Sat Jan  7 10:05:12 2023.
