 Gaussian 16, Revision A.03,
 Gaussian 16:  ES64L-G16RevA.03 25-Dec-2016

 ------------------------------------------------
 #p CCSD(T,MaxCyc=300)/cc-pVTZ Guess=Read SCF=XQC
 ------------------------------------------------

 ---------
 O2_O2_164
 ---------
 Symbolic Z-matrix:
 Charge = -2 Multiplicity = 5

                         Standard orientation:
 ---------------------------------------------------------------------
 Center     Atomic      Atomic             Coordinates (Angstroms)
 Number     Number       Type             X           Y           Z
 ---------------------------------------------------------------------
      1          8           0        0.000000    0.000000    1.953579
      2          8           0        0.000000    0.000000    3.305959
      3          8           0        0.000000    0.000000   -3.305959
      4          8           0        0.000000    0.000000   -1.953579
 ---------------------------------------------------------------------

 SCF Done:  E(UHF) =  -298.775384202     A.U. after   16 cycles
 E2 =    -0.1147250546D+01 EUMP2 =    -0.29992263474805D+03
 CCSD(T)
 CCSD(T)= -0.29991872358D+03

 Unable to determine electronic state:  an orbital has unidentified symmetry.
 Alpha  occ. eigenvalues --  -20.24163 -20.24163 -20.19981 -20.19981  -1.10904
 Alpha  occ. eigenvalues --   -1.10896  -0.74692  -0.74609  -0.29590  -0.29565
 Alpha  occ. eigenvalues --   -0.26885  -0.26861  -0.24650  -0.23821  -0.08882
 Alpha  occ. eigenvalues --   -0.08845  -0.06376  -0.06331   0.42490
 Alpha virt. eigenvalues --    0.56936   1.03209   1.10888   1.11216   1.11777
 Alpha virt. eigenvalues --    1.12596   1.13069   1.13586   1.19754   1.20915
 Alpha virt. eigenvalues --    1.20943   1.22199   1.25626   1.34334   1.34387

  Beta  occ. eigenvalues --  -20.18402 -20.18402 -20.14984 -20.14984  -0.94871
  Beta  occ. eigenvalues --   -0.94856  -0.55808  -0.55660  -0.15765  -0.15465
  Beta  occ. eigenvalues --   -0.09981  -0.09540  -0.02766  -0.02737   0.24665
  Beta virt. eigenvalues --    0.35146   0.54023   0.54233   0.76526   0.81387
  Beta virt. eigenvalues --    1.11987   1.17583   1.18474   1.18783   1.19216
  Beta virt. eigenvalues --    1.20858   1.21119   1.27741   1.28907   1.29101

 Mulliken charges and spin densities:
               1          2
     1  O   -0.377481   1.119637
     2  O   -0.622519   0.880363
     3  O   -0.622519   0.880363
     4  O   -0.377481   1.119637
 Sum of Mulliken charges =  -2.00000   4.00000

 Dipole moment (field-independent basis, Debye):
    X=             -0.0000    Y=              0.0000    Z=             -0.0000  Tot=              0.0000
 Quadrupole moment (field-independent basis, Debye-Ang):
   XX=            -25.1586   YY=            -23.9983   ZZ=           -107.7289
   XY=             -0.0000   XZ=              0.0000   YZ=             -0.0000

 Normal termination of Gaussian 16 at Sat Jan  7 06:45:02 2023.
