 Gaussian 16, Revision A.03,
 Gaussian 16:  ES64L-G16RevA.03 25-Dec-2016

 ------------------------------------------------
 #p CCSD(T,MaxCyc=300)/cc-pVTZ Guess=Read SCF=XQC
 ------------------------------------------------

 -------
 O2_O2_9
 -------
 Symbolic Z-matrix:
 Charge = -2 Multiplicity = 5

                         Standard orientation:
 ---------------------------------------------------------------------
 Center     Atomic      Atomic             Coordinates (Angstroms)
 Number     Number       Type             X           Y           Z
 ---------------------------------------------------------------------
      1          8           0        0.000000    0.000000    0.856289
      2          8           0        0.000000    0.000000    2.208669
      3          8           0        0.000000    0.000000   -2.208669
      4          8           0        0.000000    0.000000   -0.856289
 ---------------------------------------------------------------------

 SCF Done:  E(UHF) =  -298.741289447     A.U. after   14 cycles
 E2 =    -0.9906764880D+00 EUMP2 =    -0.29973196593492D+03
 CCSD(T)
 CCSD(T)= -0.29978560796D+03

 Unable to determine electronic state:  an orbital has unidentified symmetry.
 Alpha  occ. eigenvalues --  -20.12636 -20.12623 -20.10483 -20.10483  -1.04528
 Alpha  occ. eigenvalues --   -1.01924  -0.72442  -0.62467  -0.25148  -0.22299
 Alpha  occ. eigenvalues --   -0.20751  -0.19651  -0.16832  -0.06607  -0.03145
 Alpha  occ. eigenvalues --    0.00204   0.02781   0.04662   0.40286
 Alpha virt. eigenvalues --    0.80477   1.10140   1.12092   1.17184   1.18168
 Alpha virt. eigenvalues --    1.18910   1.21421   1.24391   1.26114   1.38566
 Alpha virt. eigenvalues --    1.39307   1.43116   1.43444   1.53589   1.93237

  Beta  occ. eigenvalues --  -20.07094 -20.07087 -20.04664 -20.04664  -0.87379
  Beta  occ. eigenvalues --   -0.83644  -0.55304  -0.41651  -0.13715  -0.04188
  Beta  occ. eigenvalues --   -0.00934   0.01204   0.04878   0.08124   0.23175
  Beta virt. eigenvalues --    0.58101   0.59653   0.66225   0.87930   0.95441
  Beta virt. eigenvalues --    1.20633   1.23219   1.25459   1.26307   1.26666
  Beta virt. eigenvalues --    1.31665   1.34087   1.37426   1.40846   1.41451

 Mulliken charges and spin densities:
               1          2
     1  O   -0.340083   0.862745
     2  O   -0.659917   1.137255
     3  O   -0.659917   1.137255
     4  O   -0.340083   0.862745
 Sum of Mulliken charges =  -2.00000   4.00000

 Dipole moment (field-independent basis, Debye):
    X=             -0.0000    Y=             -0.0000    Z=              0.0000  Tot=              0.0000
 Quadrupole moment (field-independent basis, Debye-Ang):
   XX=            -25.2236   YY=            -23.8632   ZZ=            -64.1095
   XY=             -0.0000   XZ=              0.0000   YZ=             -0.0000

 Normal termination of Gaussian 16 at Sat Jan  7 03:06:27 2023.
