 Gaussian 16, Revision A.03,
 Gaussian 16:  ES64L-G16RevA.03 25-Dec-2016

 ------------------------------------------------
 #p CCSD(T,MaxCyc=300)/cc-pVTZ Guess=Read SCF=XQC
 ------------------------------------------------

 ---------
 O2_O2_199
 ---------
 Symbolic Z-matrix:
 Charge = -2 Multiplicity = 5

                         Standard orientation:
 ---------------------------------------------------------------------
 Center     Atomic      Atomic             Coordinates (Angstroms)
 Number     Number       Type             X           Y           Z
 ---------------------------------------------------------------------
      1          8           0        0.000000    0.000000    2.201354
      2          8           0        0.000000    0.000000    3.553735
      3          8           0        0.000000    0.000000   -3.553735
      4          8           0        0.000000    0.000000   -2.201354
 ---------------------------------------------------------------------

 SCF Done:  E(UHF) =  -298.769827187     A.U. after   11 cycles
 E2 =    -0.1193261539D+01 EUMP2 =    -0.29996308872568D+03
 CCSD(T)
 CCSD(T)= -0.29993096329D+03

 Unable to determine electronic state:  an orbital has unidentified symmetry.
 Alpha  occ. eigenvalues --  -20.24300 -20.24300 -20.20746 -20.20745  -1.11551
 Alpha  occ. eigenvalues --   -1.11548  -0.75437  -0.75403  -0.30141  -0.30134
 Alpha  occ. eigenvalues --   -0.27454  -0.27447  -0.25537  -0.25047  -0.09536
 Alpha  occ. eigenvalues --   -0.09525  -0.07016  -0.07002   0.42817
 Alpha virt. eigenvalues --    0.54084   1.05360   1.09349   1.10710   1.10868
 Alpha virt. eigenvalues --    1.12070   1.12202   1.14180   1.18325   1.19372
 Alpha virt. eigenvalues --    1.19705   1.20559   1.20919   1.33672   1.33676

  Beta  occ. eigenvalues --  -20.18465 -20.18465 -20.15675 -20.15675  -0.95304
  Beta  occ. eigenvalues --   -0.95298  -0.56363  -0.56290  -0.16247  -0.16138
  Beta  occ. eigenvalues --   -0.10507  -0.10192  -0.03323  -0.03314   0.24589
  Beta virt. eigenvalues --    0.33983   0.53395   0.53454   0.77056   0.79401
  Beta virt. eigenvalues --    1.14224   1.16847   1.18267   1.18292   1.18390
  Beta virt. eigenvalues --    1.20319   1.20390   1.21973   1.27381   1.27686

 Mulliken charges and spin densities:
               1          2
     1  O   -0.388125   1.109187
     2  O   -0.611875   0.890813
     3  O   -0.611875   0.890813
     4  O   -0.388125   1.109187
 Sum of Mulliken charges =  -2.00000   4.00000

 Dipole moment (field-independent basis, Debye):
    X=             -0.0000    Y=             -0.0000    Z=             -0.0000  Tot=              0.0000
 Quadrupole moment (field-independent basis, Debye-Ang):
   XX=            -25.1438   YY=            -23.9807   ZZ=           -121.3870
   XY=             -0.0000   XZ=              0.0000   YZ=             -0.0000

 Normal termination of Gaussian 16 at Sat Jan  7 07:39:05 2023.
