 Gaussian 16, Revision A.03,
 Gaussian 16:  ES64L-G16RevA.03 25-Dec-2016

 ------------------------------------------------
 #p CCSD(T,MaxCyc=300)/cc-pVTZ Guess=Read SCF=XQC
 ------------------------------------------------

 ---------
 O2_O2_162
 ---------
 Symbolic Z-matrix:
 Charge = -2 Multiplicity = 5

                         Standard orientation:
 ---------------------------------------------------------------------
 Center     Atomic      Atomic             Coordinates (Angstroms)
 Number     Number       Type             X           Y           Z
 ---------------------------------------------------------------------
      1          8           0        0.000000    0.000000    1.939421
      2          8           0        0.000000    0.000000    3.291801
      3          8           0        0.000000    0.000000   -3.291801
      4          8           0        0.000000    0.000000   -1.939421
 ---------------------------------------------------------------------

 SCF Done:  E(UHF) =  -298.775828493     A.U. after   16 cycles
 E2 =    -0.1144581916D+01 EUMP2 =    -0.29992041040929D+03
 CCSD(T)
 CCSD(T)= -0.29991798252D+03

 Unable to determine electronic state:  an orbital has unidentified symmetry.
 Alpha  occ. eigenvalues --  -20.24158 -20.24157 -20.19931 -20.19931  -1.10863
 Alpha  occ. eigenvalues --   -1.10854  -0.74645  -0.74557  -0.29555  -0.29529
 Alpha  occ. eigenvalues --   -0.26850  -0.26824  -0.24595  -0.23737  -0.08841
 Alpha  occ. eigenvalues --   -0.08802  -0.06336  -0.06288   0.42459
 Alpha virt. eigenvalues --    0.57132   1.03078   1.10944   1.11241   1.11839
 Alpha virt. eigenvalues --    1.12622   1.13128   1.13557   1.19766   1.20925
 Alpha virt. eigenvalues --    1.21038   1.22298   1.26246   1.34375   1.34433

  Beta  occ. eigenvalues --  -20.18402 -20.18401 -20.14938 -20.14938  -0.94844
  Beta  occ. eigenvalues --   -0.94828  -0.55773  -0.55619  -0.15736  -0.15419
  Beta  occ. eigenvalues --   -0.09948  -0.09498  -0.02730  -0.02699   0.24668
  Beta virt. eigenvalues --    0.35223   0.54060   0.54285   0.76504   0.81508
  Beta virt. eigenvalues --    1.11848   1.17615   1.18494   1.18811   1.19272
  Beta virt. eigenvalues --    1.20888   1.21168   1.27752   1.29002   1.29681

 Mulliken charges and spin densities:
               1          2
     1  O   -0.376822   1.120342
     2  O   -0.623178   0.879658
     3  O   -0.623178   0.879658
     4  O   -0.376822   1.120342
 Sum of Mulliken charges =  -2.00000   4.00000

 Dipole moment (field-independent basis, Debye):
    X=             -0.0000    Y=              0.0000    Z=              0.0000  Tot=              0.0000
 Quadrupole moment (field-independent basis, Debye-Ang):
   XX=            -25.1597   YY=            -23.9994   ZZ=           -106.9693
   XY=             -0.0000   XZ=              0.0000   YZ=             -0.0000

 Normal termination of Gaussian 16 at Sat Jan  7 06:42:05 2023.
