 Gaussian 16, Revision A.03,
 Gaussian 16:  ES64L-G16RevA.03 25-Dec-2016

 ------------------------------------------------
 #p CCSD(T,MaxCyc=300)/cc-pVTZ Guess=Read SCF=XQC
 ------------------------------------------------

 --------
 O2_O2_30
 --------
 Symbolic Z-matrix:
 Charge = -2 Multiplicity = 5

                         Standard orientation:
 ---------------------------------------------------------------------
 Center     Atomic      Atomic             Coordinates (Angstroms)
 Number     Number       Type             X           Y           Z
 ---------------------------------------------------------------------
      1          8           0        0.000000    0.000000    1.004954
      2          8           0        0.000000    0.000000    2.357334
      3          8           0        0.000000    0.000000   -2.357334
      4          8           0        0.000000    0.000000   -1.004954
 ---------------------------------------------------------------------

 SCF Done:  E(UHF) =  -298.771066498     A.U. after   13 cycles
 E2 =    -0.1018831037D+01 EUMP2 =    -0.29978989753490D+03
 CCSD(T)
 CCSD(T)= -0.29983700425D+03

 Unable to determine electronic state:  an orbital has unidentified symmetry.
 Alpha  occ. eigenvalues --  -20.15481 -20.15475 -20.12926 -20.12925  -1.05170
 Alpha  occ. eigenvalues --   -1.04078  -0.70867  -0.66033  -0.23425  -0.23216
 Alpha  occ. eigenvalues --   -0.21845  -0.21285  -0.19399  -0.12090  -0.03668
 Alpha  occ. eigenvalues --   -0.00701  -0.00665   0.01705   0.41602
 Alpha virt. eigenvalues --    0.72910   1.10017   1.12617   1.15202   1.15897
 Alpha virt. eigenvalues --    1.17752   1.19957   1.21508   1.23534   1.38520
 Alpha virt. eigenvalues --    1.38989   1.39731   1.40261   1.44593   1.89510

  Beta  occ. eigenvalues --  -20.09744 -20.09741 -20.07325 -20.07325  -0.87954
  Beta  occ. eigenvalues --   -0.86429  -0.52655  -0.45620  -0.13003  -0.04972
  Beta  occ. eigenvalues --   -0.02862  -0.02243   0.02250   0.05485   0.24893
  Beta virt. eigenvalues --    0.52401   0.58577   0.63184   0.86116   0.92385
  Beta virt. eigenvalues --    1.20646   1.20799   1.23894   1.24674   1.24940
  Beta virt. eigenvalues --    1.29521   1.30728   1.34603   1.40453   1.41137

 Mulliken charges and spin densities:
               1          2
     1  O   -0.357741   0.928731
     2  O   -0.642259   1.071269
     3  O   -0.642259   1.071269
     4  O   -0.357741   0.928731
 Sum of Mulliken charges =  -2.00000   4.00000

 Dipole moment (field-independent basis, Debye):
    X=             -0.0000    Y=              0.0000    Z=              0.0000  Tot=              0.0000
 Quadrupole moment (field-independent basis, Debye-Ang):
   XX=            -25.2976   YY=            -23.9858   ZZ=            -67.6475
   XY=             -0.0000   XZ=              0.0000   YZ=             -0.0000

 Normal termination of Gaussian 16 at Sat Jan  7 03:34:33 2023.
