 Gaussian 16, Revision A.03,
 Gaussian 16:  ES64L-G16RevA.03 25-Dec-2016

 ------------------------------------------------
 #p CCSD(T,MaxCyc=300)/cc-pVTZ Guess=Read SCF=XQC
 ------------------------------------------------

 --------
 O2_O2_43
 --------
 Symbolic Z-matrix:
 Charge = -2 Multiplicity = 5

                         Standard orientation:
 ---------------------------------------------------------------------
 Center     Atomic      Atomic             Coordinates (Angstroms)
 Number     Number       Type             X           Y           Z
 ---------------------------------------------------------------------
      1          8           0        0.000000    0.000000    1.096985
      2          8           0        0.000000    0.000000    2.449365
      3          8           0        0.000000    0.000000   -2.449365
      4          8           0        0.000000    0.000000   -1.096985
 ---------------------------------------------------------------------

 SCF Done:  E(UHF) =  -298.776780081     A.U. after   15 cycles
 E2 =    -0.1034272743D+01 EUMP2 =    -0.29981105282330D+03
 CCSD(T)
 CCSD(T)= -0.29985394604D+03

 Unable to determine electronic state:  an orbital has unidentified symmetry.
 Alpha  occ. eigenvalues --  -20.16967 -20.16962 -20.14062 -20.14062  -1.05783
 Alpha  occ. eigenvalues --   -1.05128  -0.70743  -0.67636  -0.23910  -0.22978
 Alpha  occ. eigenvalues --   -0.22857  -0.21871  -0.20646  -0.14450  -0.04208
 Alpha  occ. eigenvalues --   -0.02270  -0.01276   0.00336   0.41889
 Alpha virt. eigenvalues --    0.70020   1.10158   1.12942   1.14038   1.14726
 Alpha virt. eigenvalues --    1.17129   1.19168   1.20522   1.22535   1.35412
 Alpha virt. eigenvalues --    1.37419   1.38078   1.38233   1.39715   1.85226

  Beta  occ. eigenvalues --  -20.11187 -20.11185 -20.08570 -20.08570  -0.88740
  Beta  occ. eigenvalues --   -0.87820  -0.52126  -0.47483  -0.12758  -0.05524
  Beta  occ. eigenvalues --   -0.05125  -0.03812   0.02182   0.04226   0.25410
  Beta virt. eigenvalues --    0.49440   0.58008   0.61647   0.84893   0.90890
  Beta virt. eigenvalues --    1.19955   1.20454   1.22871   1.23636   1.24245
  Beta virt. eigenvalues --    1.28394   1.29265   1.33299   1.38652   1.40068

 Mulliken charges and spin densities:
               1          2
     1  O   -0.365203   0.962824
     2  O   -0.634797   1.037176
     3  O   -0.634797   1.037176
     4  O   -0.365203   0.962824
 Sum of Mulliken charges =  -2.00000   4.00000

 Dipole moment (field-independent basis, Debye):
    X=             -0.0000    Y=             -0.0000    Z=             -0.0000  Tot=              0.0000
 Quadrupole moment (field-independent basis, Debye-Ang):
   XX=            -25.2966   YY=            -24.0154   ZZ=            -70.2925
   XY=             -0.0000   XZ=              0.0000   YZ=             -0.0000

 198\PMP3-0=-299.7756631\MP4SDQ=-299.7824338\CCSD=-299.7804579\CCSD(T)=
 Normal termination of Gaussian 16 at Sat Jan  7 03:52:35 2023.
