 Gaussian 16, Revision A.03,
 Gaussian 16:  ES64L-G16RevA.03 25-Dec-2016

 ------------------------------------------------
 #p CCSD(T,MaxCyc=300)/cc-pVTZ Guess=Read SCF=XQC
 ------------------------------------------------

 ---------
 O2_O2_110
 ---------
 Symbolic Z-matrix:
 Charge = -2 Multiplicity = 5

                         Standard orientation:
 ---------------------------------------------------------------------
 Center     Atomic      Atomic             Coordinates (Angstroms)
 Number     Number       Type             X           Y           Z
 ---------------------------------------------------------------------
      1          8           0        0.000000    0.000000    1.571298
      2          8           0        0.000000    0.000000    2.923678
      3          8           0        0.000000    0.000000   -2.923678
      4          8           0        0.000000    0.000000   -1.571298
 ---------------------------------------------------------------------

 SCF Done:  E(UHF) =  -298.783329783     A.U. after   16 cycles
 E2 =    -0.1092387141D+01 EUMP2 =    -0.29987571692371D+03
 CCSD(T)
 CCSD(T)= -0.29989690280D+03

 Unable to determine electronic state:  an orbital has unidentified symmetry.
 Alpha  occ. eigenvalues --  -20.22993 -20.22992 -20.18031 -20.18031  -1.09236
 Alpha  occ. eigenvalues --   -1.09181  -0.73002  -0.72630  -0.27885  -0.27746
 Alpha  occ. eigenvalues --   -0.25358  -0.25215  -0.23143  -0.21006  -0.07357
 Alpha  occ. eigenvalues --   -0.07150  -0.04696  -0.04466   0.41747
 Alpha virt. eigenvalues --    0.62403   1.04880   1.11320   1.11811   1.13169
 Alpha virt. eigenvalues --    1.13494   1.14080   1.15344   1.19714   1.20913
 Alpha virt. eigenvalues --    1.25452   1.26773   1.35809   1.36140   1.50402

  Beta  occ. eigenvalues --  -20.17268 -20.17267 -20.13014 -20.13014  -0.93273
  Beta  occ. eigenvalues --   -0.93192  -0.54196  -0.53611  -0.14410  -0.13172
  Beta  occ. eigenvalues --   -0.08421  -0.07615  -0.00858  -0.00689   0.25035
  Beta virt. eigenvalues --    0.38602   0.55319   0.56279   0.78297   0.84873
  Beta virt. eigenvalues --    1.12747   1.18295   1.19601   1.19727   1.21256
  Beta virt. eigenvalues --    1.21895   1.23276   1.27712   1.30609   1.33576

 Mulliken charges and spin densities:
               1          2
     1  O   -0.364374   1.111431
     2  O   -0.635626   0.888569
     3  O   -0.635626   0.888569
     4  O   -0.364374   1.111431
 Sum of Mulliken charges =  -2.00000   4.00000

 Dipole moment (field-independent basis, Debye):
    X=             -0.0000    Y=              0.0000    Z=              0.0000  Tot=              0.0000
 Quadrupole moment (field-independent basis, Debye-Ang):
   XX=            -25.1963   YY=            -24.0311   ZZ=            -88.5703
   XY=             -0.0000   XZ=              0.0000   YZ=             -0.0000

 Normal termination of Gaussian 16 at Sat Jan  7 05:24:55 2023.
