 Gaussian 16, Revision A.03,
 Gaussian 16:  ES64L-G16RevA.03 25-Dec-2016

 ------------------------------------------------
 #p CCSD(T,MaxCyc=300)/cc-pVTZ Guess=Read SCF=XQC
 ------------------------------------------------

 --------
 O2_O2_87
 --------
 Symbolic Z-matrix:
 Charge = -2 Multiplicity = 5

                         Standard orientation:
 ---------------------------------------------------------------------
 Center     Atomic      Atomic             Coordinates (Angstroms)
 Number     Number       Type             X           Y           Z
 ---------------------------------------------------------------------
      1          8           0        0.000000    0.000000    1.408474
      2          8           0        0.000000    0.000000    2.760854
      3          8           0        0.000000    0.000000   -2.760854
      4          8           0        0.000000    0.000000   -1.408474
 ---------------------------------------------------------------------

 SCF Done:  E(UHF) =  -298.781775079     A.U. after   14 cycles
 E2 =    -0.1075970364D+01 EUMP2 =    -0.29985774544336D+03
 CCSD(T)
 CCSD(T)= -0.29988556616D+03

 Unable to determine electronic state:  an orbital has unidentified symmetry.
 Alpha  occ. eigenvalues --  -20.21115 -20.21113 -20.16982 -20.16982  -1.08057
 Alpha  occ. eigenvalues --   -1.07934  -0.72029  -0.71284  -0.26463  -0.26201
 Alpha  occ. eigenvalues --   -0.24170  -0.23874  -0.22656  -0.19341  -0.06381
 Alpha  occ. eigenvalues --   -0.05924  -0.03533  -0.03085   0.41839
 Alpha virt. eigenvalues --    0.64482   1.10827   1.11683   1.12254   1.13360
 Alpha virt. eigenvalues --    1.13507   1.15142   1.16649   1.19531   1.21026
 Alpha virt. eigenvalues --    1.29161   1.30279   1.36734   1.37252   1.64350

  Beta  occ. eigenvalues --  -20.15380 -20.15378 -20.11789 -20.11789  -0.91792
  Beta  occ. eigenvalues --   -0.91606  -0.53086  -0.51925  -0.13466  -0.11147
  Beta  occ. eigenvalues --   -0.07425  -0.06428   0.00512   0.00934   0.25440
  Beta virt. eigenvalues --    0.41668   0.56160   0.57702   0.80538   0.86734
  Beta virt. eigenvalues --    1.17417   1.18511   1.20490   1.21037   1.22212
  Beta virt. eigenvalues --    1.22287   1.24955   1.27659   1.30951   1.37428

 Mulliken charges and spin densities:
               1          2
     1  O   -0.374612   1.060211
     2  O   -0.625388   0.939789
     3  O   -0.625388   0.939789
     4  O   -0.374612   1.060211
 Sum of Mulliken charges =  -2.00000   4.00000

 Dipole moment (field-independent basis, Debye):
    X=             -0.0000    Y=              0.0000    Z=              0.0000  Tot=              0.0000
 Quadrupole moment (field-independent basis, Debye-Ang):
   XX=            -25.2231   YY=            -24.0364   ZZ=            -81.1648
   XY=             -0.0000   XZ=              0.0000   YZ=             -0.0000

 Normal termination of Gaussian 16 at Sat Jan  7 04:53:18 2023.
