 Gaussian 16, Revision A.03,
 Gaussian 16:  ES64L-G16RevA.03 25-Dec-2016

 ------------------------------------------------
 #p CCSD(T,MaxCyc=300)/cc-pVTZ Guess=Read SCF=XQC
 ------------------------------------------------

 ---------
 O2_O2_128
 ---------
 Symbolic Z-matrix:
 Charge = -2 Multiplicity = 5

                         Standard orientation:
 ---------------------------------------------------------------------
 Center     Atomic      Atomic             Coordinates (Angstroms)
 Number     Number       Type             X           Y           Z
 ---------------------------------------------------------------------
      1          8           0        0.000000    0.000000    1.698725
      2          8           0        0.000000    0.000000    3.051105
      3          8           0        0.000000    0.000000   -3.051105
      4          8           0        0.000000    0.000000   -1.698725
 ---------------------------------------------------------------------

 SCF Done:  E(UHF) =  -298.782507155     A.U. after   16 cycles
 E2 =    -0.1105673442D+01 EUMP2 =    -0.29988818059777D+03
 CCSD(T)
 CCSD(T)= -0.29990469742D+03

 Unable to determine electronic state:  an orbital has unidentified symmetry.
 Alpha  occ. eigenvalues --  -20.23760 -20.23759 -20.18811 -20.18811  -1.09958
 Alpha  occ. eigenvalues --   -1.09929  -0.73667  -0.73446  -0.28704  -0.28623
 Alpha  occ. eigenvalues --   -0.26044  -0.25964  -0.23616  -0.22077  -0.07967
 Alpha  occ. eigenvalues --   -0.07851  -0.05425  -0.05288   0.41891
 Alpha virt. eigenvalues --    0.60676   1.02590   1.11425   1.11607   1.13020
 Alpha virt. eigenvalues --    1.13190   1.13400   1.14420   1.19814   1.20941
 Alpha virt. eigenvalues --    1.23398   1.24731   1.35172   1.35409   1.40449

  Beta  occ. eigenvalues --  -20.18052 -20.18051 -20.13855 -20.13855  -0.94085
  Beta  occ. eigenvalues --   -0.94041  -0.54928  -0.54573  -0.15030  -0.14262
  Beta  occ. eigenvalues --   -0.09129  -0.08470  -0.01790  -0.01700   0.24829
  Beta virt. eigenvalues --    0.37007   0.54816   0.55433   0.77070   0.83616
  Beta virt. eigenvalues --    1.11043   1.18091   1.19076   1.19330   1.20472
  Beta virt. eigenvalues --    1.21501   1.22300   1.27786   1.30635   1.31418

 Mulliken charges and spin densities:
               1          2
     1  O   -0.365554   1.126373
     2  O   -0.634446   0.873627
     3  O   -0.634446   0.873627
     4  O   -0.365554   1.126373
 Sum of Mulliken charges =  -2.00000   4.00000

 Dipole moment (field-independent basis, Debye):
    X=             -0.0000    Y=              0.0000    Z=             -0.0000  Tot=              0.0000
 Quadrupole moment (field-independent basis, Debye-Ang):
   XX=            -25.1804   YY=            -24.0190   ZZ=            -94.6281
   XY=             -0.0000   XZ=              0.0000   YZ=             -0.0000

 Normal termination of Gaussian 16 at Sat Jan  7 05:51:49 2023.
