 Gaussian 16, Revision A.03,
 Gaussian 16:  ES64L-G16RevA.03 25-Dec-2016

 -------------------------------------
 #p CCSD(T,MaxCyc=300)/cc-pVTZ SCF=XQC
 -------------------------------------

 -------
 O2_O2_0
 -------
 Symbolic Z-matrix:
 Charge = -2 Multiplicity = 5

                         Standard orientation:
 ---------------------------------------------------------------------
 Center     Atomic      Atomic             Coordinates (Angstroms)
 Number     Number       Type             X           Y           Z
 ---------------------------------------------------------------------
      1          8           0        0.000000    0.000000    0.792575
      2          8           0        0.000000    0.000000    2.144956
      3          8           0        0.000000    0.000000   -2.144956
      4          8           0        0.000000    0.000000   -0.792575
 ---------------------------------------------------------------------

 SCF Done:  E(UHF) =  -298.712177924     A.U. after   18 cycles
 E2 =    -0.9779275984D+00 EUMP2 =    -0.29969010552257D+03
 CCSD(T)
 CCSD(T)= -0.29974608451D+03

 Unable to determine electronic state:  an orbital has unidentified symmetry.
 Alpha  occ. eigenvalues --  -20.11386 -20.11367 -20.09061 -20.09061  -1.04707
 Alpha  occ. eigenvalues --   -1.00771  -0.74060  -0.60486  -0.26270  -0.22172
 Alpha  occ. eigenvalues --   -0.20983  -0.18517  -0.15474  -0.03443  -0.03186
 Alpha  occ. eigenvalues --    0.00510   0.04725   0.06317   0.39173
 Alpha virt. eigenvalues --    0.85367   1.10743   1.11754   1.17818   1.18952
 Alpha virt. eigenvalues --    1.19513   1.22165   1.26055   1.27613   1.38285
 Alpha virt. eigenvalues --    1.38964   1.44359   1.44610   1.55932   1.92785

  Beta  occ. eigenvalues --  -20.05969 -20.05957 -20.03155 -20.03155  -0.87983
  Beta  occ. eigenvalues --   -0.82212  -0.57387  -0.39506  -0.14026  -0.04062
  Beta  occ. eigenvalues --   -0.00088   0.00108   0.09440   0.09565   0.21946
  Beta virt. eigenvalues --    0.60191   0.60908   0.67771   0.88411   0.97152
  Beta virt. eigenvalues --    1.20240   1.25039   1.25966   1.27032   1.27307
  Beta virt. eigenvalues --    1.32738   1.35498   1.38819   1.40944   1.41236

 Mulliken charges and spin densities:
               1          2
     1  O   -0.325798   0.835322
     2  O   -0.674202   1.164678
     3  O   -0.674202   1.164678
     4  O   -0.325798   0.835322
 Sum of Mulliken charges =  -2.00000   4.00000

 Dipole moment (field-independent basis, Debye):
    X=             -0.0000    Y=             -0.0000    Z=             -0.0000  Tot=              0.0000
 Quadrupole moment (field-independent basis, Debye-Ang):
   XX=            -25.1459   YY=            -23.7652   ZZ=            -63.0694
   XY=             -0.0000   XZ=              0.0000   YZ=             -0.0000

 0=-299.6683208\MP4SDQ=-299.6859952\CCSD=-299.6901311\CCSD(T)=-299.7460
 Normal termination of Gaussian 16 at Sat Jan  7 02:54:27 2023.
