 Gaussian 16, Revision A.03,
 Gaussian 16:  ES64L-G16RevA.03 25-Dec-2016

 ------------------------------------------------
 #p CCSD(T,MaxCyc=300)/cc-pVTZ Guess=Read SCF=XQC
 ------------------------------------------------

 ---------
 O2_O2_184
 ---------
 Symbolic Z-matrix:
 Charge = -2 Multiplicity = 5

                         Standard orientation:
 ---------------------------------------------------------------------
 Center     Atomic      Atomic             Coordinates (Angstroms)
 Number     Number       Type             X           Y           Z
 ---------------------------------------------------------------------
      1          8           0        0.000000    0.000000    2.095165
      2          8           0        0.000000    0.000000    3.447545
      3          8           0        0.000000    0.000000   -3.447545
      4          8           0        0.000000    0.000000   -2.095165
 ---------------------------------------------------------------------

 SCF Done:  E(UHF) =  -298.771599510     A.U. after   16 cycles
 E2 =    -0.1174082146D+01 EUMP2 =    -0.29994568165584D+03
 CCSD(T)
 CCSD(T)= -0.29992590052D+03

 Unable to determine electronic state:  an orbital has unidentified symmetry.
 Alpha  occ. eigenvalues --  -20.24220 -20.24219 -20.20433 -20.20433  -1.11282
 Alpha  occ. eigenvalues --   -1.11278  -0.75131  -0.75082  -0.29908  -0.29895
 Alpha  occ. eigenvalues --   -0.27213  -0.27201  -0.25177  -0.24570  -0.09263
 Alpha  occ. eigenvalues --   -0.09245  -0.06749  -0.06726   0.42730
 Alpha virt. eigenvalues --    0.55168   1.04562   1.10128   1.10943   1.11222
 Alpha virt. eigenvalues --    1.12308   1.12542   1.13932   1.19569   1.20155
 Alpha virt. eigenvalues --    1.20686   1.20749   1.21383   1.33947   1.33967

  Beta  occ. eigenvalues --  -20.18410 -20.18410 -20.15391 -20.15391  -0.95114
  Beta  occ. eigenvalues --   -0.95105  -0.56128  -0.56031  -0.16036  -0.15865
  Beta  occ. eigenvalues --   -0.10284  -0.09922  -0.03089  -0.03074   0.24632
  Beta virt. eigenvalues --    0.34452   0.53662   0.53766   0.76843   0.80213
  Beta virt. eigenvalues --    1.13404   1.17208   1.18337   1.18498   1.18716
  Beta virt. eigenvalues --    1.20554   1.20683   1.24362   1.27571   1.28128

 Mulliken charges and spin densities:
               1          2
     1  O   -0.383727   1.113150
     2  O   -0.616273   0.886850
     3  O   -0.616273   0.886850
     4  O   -0.383727   1.113150
 Sum of Mulliken charges =  -2.00000   4.00000

 Dipole moment (field-independent basis, Debye):
    X=             -0.0000    Y=              0.0000    Z=              0.0000  Tot=              0.0000
 Quadrupole moment (field-independent basis, Debye-Ang):
   XX=            -25.1494   YY=            -23.9874   ZZ=           -115.4543
   XY=             -0.0000   XZ=              0.0000   YZ=             -0.0000

 2\PMP3-0=-299.9285138\MP4SDQ=-299.7321102\CCSD=-299.8126799\CCSD(T)=-2
 Normal termination of Gaussian 16 at Sat Jan  7 07:15:44 2023.
