 Gaussian 16, Revision A.03,
 Gaussian 16:  ES64L-G16RevA.03 25-Dec-2016

 ------------------------------------------------
 #p CCSD(T,MaxCyc=300)/cc-pVTZ Guess=Read SCF=XQC
 ------------------------------------------------

 ---------
 O2_O2_117
 ---------
 Symbolic Z-matrix:
 Charge = -2 Multiplicity = 5

                         Standard orientation:
 ---------------------------------------------------------------------
 Center     Atomic      Atomic             Coordinates (Angstroms)
 Number     Number       Type             X           Y           Z
 ---------------------------------------------------------------------
      1          8           0        0.000000    0.000000    1.620853
      2          8           0        0.000000    0.000000    2.973233
      3          8           0        0.000000    0.000000   -2.973233
      4          8           0        0.000000    0.000000   -1.620853
 ---------------------------------------------------------------------

 SCF Done:  E(UHF) =  -298.783298499     A.U. after   16 cycles
 E2 =    -0.1097080448D+01 EUMP2 =    -0.29988037894766D+03
 CCSD(T)
 CCSD(T)= -0.29990002087D+03

 Unable to determine electronic state:  an orbital has unidentified symmetry.
 Alpha  occ. eigenvalues --  -20.23364 -20.23363 -20.18338 -20.18338  -1.09540
 Alpha  occ. eigenvalues --   -1.09498  -0.73272  -0.72969  -0.28244  -0.28131
 Alpha  occ. eigenvalues --   -0.25651  -0.25537  -0.23319  -0.21441  -0.07603
 Alpha  occ. eigenvalues --   -0.07439  -0.05001  -0.04813   0.41779
 Alpha virt. eigenvalues --    0.61755   1.03702   1.11397   1.11722   1.13116
 Alpha virt. eigenvalues --    1.13458   1.13730   1.14967   1.19764   1.20918
 Alpha virt. eigenvalues --    1.24568   1.25906   1.35549   1.35837   1.46358

  Beta  occ. eigenvalues --  -20.17647 -20.17646 -20.13355 -20.13355  -0.93630
  Beta  occ. eigenvalues --   -0.93566  -0.54505  -0.54025  -0.14672  -0.13646
  Beta  occ. eigenvalues --   -0.08715  -0.07968  -0.01260  -0.01130   0.24945
  Beta virt. eigenvalues --    0.37903   0.55115   0.55930   0.77747   0.84364
  Beta virt. eigenvalues --    1.11856   1.18224   1.19378   1.19554   1.20950
  Beta virt. eigenvalues --    1.21743   1.22856   1.27746   1.30603   1.32645

 Mulliken charges and spin densities:
               1          2
     1  O   -0.363746   1.120076
     2  O   -0.636254   0.879924
     3  O   -0.636254   0.879924
     4  O   -0.363746   1.120076
 Sum of Mulliken charges =  -2.00000   4.00000

 Dipole moment (field-independent basis, Debye):
    X=             -0.0000    Y=              0.0000    Z=              0.0000  Tot=              0.0000
 Quadrupole moment (field-independent basis, Debye-Ang):
   XX=            -25.1896   YY=            -24.0262   ZZ=            -90.9063
   XY=             -0.0000   XZ=              0.0000   YZ=             -0.0000

 Normal termination of Gaussian 16 at Sat Jan  7 05:35:13 2023.
