 Gaussian 16, Revision A.03,
 Gaussian 16:  ES64L-G16RevA.03 25-Dec-2016

 ------------------------------------------------
 #p CCSD(T,MaxCyc=300)/cc-pVTZ Guess=Read SCF=XQC
 ------------------------------------------------

 ---------
 O2_O2_121
 ---------
 Symbolic Z-matrix:
 Charge = -2 Multiplicity = 5

                         Standard orientation:
 ---------------------------------------------------------------------
 Center     Atomic      Atomic             Coordinates (Angstroms)
 Number     Number       Type             X           Y           Z
 ---------------------------------------------------------------------
      1          8           0        0.000000    0.000000    1.649170
      2          8           0        0.000000    0.000000    3.001550
      3          8           0        0.000000    0.000000   -3.001550
      4          8           0        0.000000    0.000000   -1.649170
 ---------------------------------------------------------------------

 SCF Done:  E(UHF) =  -298.783119104     A.U. after   16 cycles
 E2 =    -0.1099987156D+01 EUMP2 =    -0.29988310626015D+03
 CCSD(T)
 CCSD(T)= -0.29990175026D+03

 Unable to determine electronic state:  an orbital has unidentified symmetry.
 Alpha  occ. eigenvalues --  -20.23531 -20.23530 -20.18514 -20.18513  -1.09701
 Alpha  occ. eigenvalues --   -1.09663  -0.73419  -0.73150  -0.28425  -0.28325
 Alpha  occ. eigenvalues --   -0.25803  -0.25703  -0.23424  -0.21678  -0.07739
 Alpha  occ. eigenvalues --   -0.07594  -0.05163  -0.04996   0.41812
 Alpha virt. eigenvalues --    0.61372   1.03200   1.11419   1.11678   1.13083
 Alpha virt. eigenvalues --    1.13435   1.13531   1.14761   1.19786   1.20925
 Alpha virt. eigenvalues --    1.24114   1.25453   1.35408   1.35674   1.44142

  Beta  occ. eigenvalues --  -20.17819 -20.17818 -20.13544 -20.13543  -0.93810
  Beta  occ. eigenvalues --   -0.93754  -0.54668  -0.54239  -0.14810  -0.13887
  Beta  occ. eigenvalues --   -0.08874  -0.08160  -0.01468  -0.01355   0.24899
  Beta virt. eigenvalues --    0.37551   0.55003   0.55742   0.77473   0.84086
  Beta virt. eigenvalues --    1.11481   1.18178   1.19262   1.19467   1.20774
  Beta virt. eigenvalues --    1.21654   1.22639   1.27762   1.30611   1.32167

 Mulliken charges and spin densities:
               1          2
     1  O   -0.364105   1.123246
     2  O   -0.635895   0.876754
     3  O   -0.635895   0.876754
     4  O   -0.364105   1.123246
 Sum of Mulliken charges =  -2.00000   4.00000

 Dipole moment (field-independent basis, Debye):
    X=             -0.0000    Y=              0.0000    Z=             -0.0000  Tot=              0.0000
 Quadrupole moment (field-independent basis, Debye-Ang):
   XX=            -25.1861   YY=            -24.0235   ZZ=            -92.2484
   XY=             -0.0000   XZ=              0.0000   YZ=             -0.0000

 Normal termination of Gaussian 16 at Sat Jan  7 05:41:14 2023.
