 Gaussian 16, Revision A.03,
 Gaussian 16:  ES64L-G16RevA.03 25-Dec-2016

 ------------------------------------------------
 #p CCSD(T,MaxCyc=300)/cc-pVTZ Guess=Read SCF=XQC
 ------------------------------------------------

 ---------
 O2_O2_203
 ---------
 Symbolic Z-matrix:
 Charge = -2 Multiplicity = 5

                         Standard orientation:
 ---------------------------------------------------------------------
 Center     Atomic      Atomic             Coordinates (Angstroms)
 Number     Number       Type             X           Y           Z
 ---------------------------------------------------------------------
      1          8           0        0.000000    0.000000    2.229671
      2          8           0        0.000000    0.000000    3.582052
      3          8           0        0.000000    0.000000   -3.582052
      4          8           0        0.000000    0.000000   -2.229671
 ---------------------------------------------------------------------

 SCF Done:  E(UHF) =  -298.769514867     A.U. after   16 cycles
 E2 =    -0.1198140617D+01 EUMP2 =    -0.29996765548437D+03
 CCSD(T)
 CCSD(T)= -0.29993226034D+03

 Unable to determine electronic state:  an orbital has unidentified symmetry.
 Alpha  occ. eigenvalues --  -20.24329 -20.24329 -20.20828 -20.20828  -1.11622
 Alpha  occ. eigenvalues --   -1.11620  -0.75517  -0.75486  -0.30204  -0.30198
 Alpha  occ. eigenvalues --   -0.27519  -0.27513  -0.25629  -0.25164  -0.09609
 Alpha  occ. eigenvalues --   -0.09599  -0.07087  -0.07076   0.42828
 Alpha virt. eigenvalues --    0.53828   1.05521   1.09125   1.10645   1.10780
 Alpha virt. eigenvalues --    1.12004   1.12117   1.14233   1.17852   1.19312
 Alpha virt. eigenvalues --    1.19598   1.20501   1.20810   1.33599   1.33601

  Beta  occ. eigenvalues --  -20.18489 -20.18489 -20.15750 -20.15750  -0.95359
  Beta  occ. eigenvalues --   -0.95353  -0.56427  -0.56360  -0.16306  -0.16211
  Beta  occ. eigenvalues --   -0.10569  -0.10264  -0.03387  -0.03379   0.24573
  Beta virt. eigenvalues --    0.33862   0.53323   0.53373   0.77096   0.79200
  Beta virt. eigenvalues --    1.14385   1.16738   1.18202   1.18283   1.18307
  Beta virt. eigenvalues --    1.20254   1.20315   1.21477   1.27324   1.27581

 Mulliken charges and spin densities:
               1          2
     1  O   -0.389269   1.108239
     2  O   -0.610731   0.891761
     3  O   -0.610731   0.891761
     4  O   -0.389269   1.108239
 Sum of Mulliken charges =  -2.00000   4.00000

 Dipole moment (field-independent basis, Debye):
    X=             -0.0000    Y=              0.0000    Z=              0.0000  Tot=              0.0000
 Quadrupole moment (field-independent basis, Debye-Ang):
   XX=            -25.1426   YY=            -23.9791   ZZ=           -122.9905
   XY=             -0.0000   XZ=              0.0000   YZ=             -0.0000

 Normal termination of Gaussian 16 at Sat Jan  7 07:45:19 2023.
