 Gaussian 16, Revision A.03,
 Gaussian 16:  ES64L-G16RevA.03 25-Dec-2016

 ------------------------------------------------
 #p CCSD(T,MaxCyc=300)/cc-pVTZ Guess=Read SCF=XQC
 ------------------------------------------------

 --------
 O2_O2_32
 --------
 Symbolic Z-matrix:
 Charge = -2 Multiplicity = 5

                         Standard orientation:
 ---------------------------------------------------------------------
 Center     Atomic      Atomic             Coordinates (Angstroms)
 Number     Number       Type             X           Y           Z
 ---------------------------------------------------------------------
      1          8           0        0.000000    0.000000    1.019113
      2          8           0        0.000000    0.000000    2.371493
      3          8           0        0.000000    0.000000   -2.371493
      4          8           0        0.000000    0.000000   -1.019113
 ---------------------------------------------------------------------

 SCF Done:  E(UHF) =  -298.772320833     A.U. after   13 cycles
 E2 =    -0.1021307783D+01 EUMP2 =    -0.29979362861616D+03
 CCSD(T)
 CCSD(T)= -0.29984009349D+03

 Unable to determine electronic state:  an orbital has unidentified symmetry.
 Alpha  occ. eigenvalues --  -20.15724 -20.15718 -20.13114 -20.13114  -1.05260
 Alpha  occ. eigenvalues --   -1.04251  -0.70819  -0.66305  -0.23320  -0.23316
 Alpha  occ. eigenvalues --   -0.22029  -0.21370  -0.19606  -0.12496  -0.03745
 Alpha  occ. eigenvalues --   -0.00966  -0.00757   0.01476   0.41664
 Alpha virt. eigenvalues --    0.72398   1.10036   1.12665   1.15007   1.15694
 Alpha virt. eigenvalues --    1.17653   1.19832   1.21323   1.23355   1.38484
 Alpha virt. eigenvalues --    1.38833   1.39384   1.39934   1.43539   1.88906

  Beta  occ. eigenvalues --  -20.09978 -20.09974 -20.07532 -20.07532  -0.88065
  Beta  occ. eigenvalues --   -0.86657  -0.52532  -0.45932  -0.12953  -0.05056
  Beta  occ. eigenvalues --   -0.03018  -0.02743   0.02263   0.05276   0.24994
  Beta virt. eigenvalues --    0.51919   0.58486   0.62932   0.85927   0.92140
  Beta virt. eigenvalues --    1.20622   1.20649   1.23734   1.24495   1.24828
  Beta virt. eigenvalues --    1.29340   1.30463   1.34379   1.40398   1.41014

 Mulliken charges and spin densities:
               1          2
     1  O   -0.358955   0.934338
     2  O   -0.641045   1.065662
     3  O   -0.641045   1.065662
     4  O   -0.358955   0.934338
 Sum of Mulliken charges =  -2.00000   4.00000

 Dipole moment (field-independent basis, Debye):
    X=             -0.0000    Y=              0.0000    Z=             -0.0000  Tot=              0.0000
 Quadrupole moment (field-independent basis, Debye-Ang):
   XX=            -25.2991   YY=            -23.9920   ZZ=            -68.0374
   XY=             -0.0000   XZ=              0.0000   YZ=             -0.0000

 Normal termination of Gaussian 16 at Sat Jan  7 03:37:17 2023.
