 Gaussian 16, Revision A.03,
 Gaussian 16:  ES64L-G16RevA.03 25-Dec-2016

 ------------------------------------------------
 #p CCSD(T,MaxCyc=300)/cc-pVTZ Guess=Read SCF=XQC
 ------------------------------------------------

 ---------
 O2_O2_265
 ---------
 Symbolic Z-matrix:
 Charge = -2 Multiplicity = 5

                         Standard orientation:
 ---------------------------------------------------------------------
 Center     Atomic      Atomic             Coordinates (Angstroms)
 Number     Number       Type             X           Y           Z
 ---------------------------------------------------------------------
      1          8           0        0.000000    0.000000    2.668588
      2          8           0        0.000000    0.000000    4.020968
      3          8           0        0.000000    0.000000   -4.020968
      4          8           0        0.000000    0.000000   -2.668588
 ---------------------------------------------------------------------

 SCF Done:  E(UHF) =  -298.770277866     A.U. after    9 cycles
 E2 =    -0.1261344315D+01 EUMP2 =    -0.30003162218075D+03
 CCSD(T)
 CCSD(T)= -0.29994935586D+03

 Unable to determine electronic state:  an orbital has unidentified symmetry.
 Alpha  occ. eigenvalues --  -20.25032 -20.25032 -20.22094 -20.22094  -1.12697
 Alpha  occ. eigenvalues --   -1.12697  -0.76673  -0.76663  -0.31214  -0.31213
 Alpha  occ. eigenvalues --   -0.28552  -0.28551  -0.26840  -0.26597  -0.10728
 Alpha  occ. eigenvalues --   -0.10727  -0.08185  -0.08184   0.42606
 Alpha virt. eigenvalues --    0.51092   1.05956   1.06382   1.09598   1.09610
 Alpha virt. eigenvalues --    1.10955   1.10965   1.14052   1.14545   1.18277
 Alpha virt. eigenvalues --    1.18307   1.19470   1.19502   1.32515   1.32519

  Beta  occ. eigenvalues --  -20.19187 -20.19187 -20.16936 -20.16936  -0.96327
  Beta  occ. eigenvalues --   -0.96325  -0.57470  -0.57440  -0.17328  -0.17318
  Beta  occ. eigenvalues --   -0.11571  -0.11381  -0.04392  -0.04392   0.24182
  Beta virt. eigenvalues --    0.32138   0.52210   0.52213   0.76798   0.77028
  Beta virt. eigenvalues --    1.14690   1.14963   1.17159   1.17166   1.17780
  Beta virt. eigenvalues --    1.17998   1.19233   1.19236   1.26302   1.26315

 Mulliken charges and spin densities:
               1          2
     1  O   -0.405704   1.095635
     2  O   -0.594296   0.904365
     3  O   -0.594296   0.904365
     4  O   -0.405704   1.095635
 Sum of Mulliken charges =  -2.00000   4.00000

 Dipole moment (field-independent basis, Debye):
    X=             -0.0000    Y=             -0.0000    Z=             -0.0000  Tot=              0.0000
 Quadrupole moment (field-independent basis, Debye-Ang):
   XX=            -25.1310   YY=            -23.9662   ZZ=           -149.3293
   XY=             -0.0000   XZ=              0.0000   YZ=             -0.0000

 Normal termination of Gaussian 16 at Sat Jan  7 09:22:18 2023.
