 Gaussian 16, Revision A.03,
 Gaussian 16:  ES64L-G16RevA.03 25-Dec-2016

 ------------------------------------------------
 #p CCSD(T,MaxCyc=300)/cc-pVTZ Guess=Read SCF=XQC
 ------------------------------------------------

 --------
 O2_O2_64
 --------
 Symbolic Z-matrix:
 Charge = -2 Multiplicity = 5

                         Standard orientation:
 ---------------------------------------------------------------------
 Center     Atomic      Atomic             Coordinates (Angstroms)
 Number     Number       Type             X           Y           Z
 ---------------------------------------------------------------------
      1          8           0        0.000000    0.000000    1.245650
      2          8           0        0.000000    0.000000    2.598030
      3          8           0        0.000000    0.000000   -2.598030
      4          8           0        0.000000    0.000000   -1.245650
 ---------------------------------------------------------------------

 SCF Done:  E(UHF) =  -298.779796408     A.U. after   14 cycles
 E2 =    -0.1056075703D+01 EUMP2 =    -0.29983587211039D+03
 CCSD(T)
 CCSD(T)= -0.29987170197D+03

 Unable to determine electronic state:  an orbital has unidentified symmetry.
 Alpha  occ. eigenvalues --  -20.19019 -20.19016 -20.15589 -20.15589  -1.06842
 Alpha  occ. eigenvalues --   -1.06551  -0.71155  -0.69606  -0.25084  -0.24580
 Alpha  occ. eigenvalues --   -0.22923  -0.22502  -0.22305  -0.17198  -0.05212
 Alpha  occ. eigenvalues --   -0.04233  -0.02320  -0.01446   0.41978
 Alpha virt. eigenvalues --    0.66870   1.10409   1.12856   1.13366   1.13697
 Alpha virt. eigenvalues --    1.16173   1.17963   1.19724   1.21535   1.22753
 Alpha virt. eigenvalues --    1.33481   1.34351   1.37593   1.38384   1.76604

  Beta  occ. eigenvalues --  -20.13249 -20.13247 -20.10239 -20.10239  -0.90162
  Beta  occ. eigenvalues --   -0.89739  -0.52235  -0.49856  -0.12815  -0.08471
  Beta  occ. eigenvalues --   -0.06423  -0.05138   0.01572   0.02549   0.25684
  Beta virt. eigenvalues --    0.45391   0.57136   0.59572   0.82890   0.88795
  Beta virt. eigenvalues --    1.19046   1.19858   1.21508   1.22684   1.23237
  Beta virt. eigenvalues --    1.26727   1.28032   1.28387   1.31844   1.39322

 Mulliken charges and spin densities:
               1          2
     1  O   -0.374142   1.009870
     2  O   -0.625858   0.990130
     3  O   -0.625858   0.990130
     4  O   -0.374142   1.009870
 Sum of Mulliken charges =  -2.00000   4.00000

 Dipole moment (field-independent basis, Debye):
    X=             -0.0000    Y=             -0.0000    Z=             -0.0000  Tot=              0.0000
 Quadrupole moment (field-independent basis, Debye-Ang):
   XX=            -25.2629   YY=            -24.0305   ZZ=            -75.0577
   XY=             -0.0000   XZ=              0.0000   YZ=             -0.0000

 Normal termination of Gaussian 16 at Sat Jan  7 04:21:41 2023.
