 Gaussian 16, Revision A.03,
 Gaussian 16:  ES64L-G16RevA.03 25-Dec-2016

 ------------------------------------------------
 #p CCSD(T,MaxCyc=300)/cc-pVTZ Guess=Read SCF=XQC
 ------------------------------------------------

 --------
 O2_O2_75
 --------
 Symbolic Z-matrix:
 Charge = -2 Multiplicity = 5

                         Standard orientation:
 ---------------------------------------------------------------------
 Center     Atomic      Atomic             Coordinates (Angstroms)
 Number     Number       Type             X           Y           Z
 ---------------------------------------------------------------------
      1          8           0        0.000000    0.000000    1.323523
      2          8           0        0.000000    0.000000    2.675903
      3          8           0        0.000000    0.000000   -2.675903
      4          8           0        0.000000    0.000000   -1.323523
 ---------------------------------------------------------------------

 SCF Done:  E(UHF) =  -298.780704669     A.U. after   14 cycles
 E2 =    -0.1066035335D+01 EUMP2 =    -0.29984674000421D+03
 CCSD(T)
 CCSD(T)= -0.29987876120D+03

 Unable to determine electronic state:  an orbital has unidentified symmetry.
 Alpha  occ. eigenvalues --  -20.20022 -20.20020 -20.16294 -20.16294  -1.07417
 Alpha  occ. eigenvalues --   -1.07225  -0.71538  -0.70452  -0.25729  -0.25361
 Alpha  occ. eigenvalues --   -0.23510  -0.23076  -0.22519  -0.18301  -0.05772
 Alpha  occ. eigenvalues --   -0.05090  -0.02893  -0.02258   0.41927
 Alpha virt. eigenvalues --    0.65647   1.10583   1.12522   1.13462   1.13484
 Alpha virt. eigenvalues --    1.15679   1.16954   1.17336   1.19562   1.21227
 Alpha virt. eigenvalues --    1.31387   1.32373   1.37199   1.37845   1.71116

  Beta  occ. eigenvalues --  -20.14271 -20.14270 -20.11015 -20.11015  -0.90940
  Beta  occ. eigenvalues --   -0.90655  -0.52579  -0.50896  -0.13062  -0.09841
  Beta  occ. eigenvalues --   -0.06902  -0.05773   0.01106   0.01765   0.25620
  Beta virt. eigenvalues --    0.43538   0.56672   0.58631   0.81783   0.87787
  Beta virt. eigenvalues --    1.18735   1.19184   1.20976   1.22455   1.22736
  Beta virt. eigenvalues --    1.23941   1.25879   1.27768   1.31339   1.38880

 Mulliken charges and spin densities:
               1          2
     1  O   -0.376014   1.033284
     2  O   -0.623986   0.966716
     3  O   -0.623986   0.966716
     4  O   -0.376014   1.033284
 Sum of Mulliken charges =  -2.00000   4.00000

 Dipole moment (field-independent basis, Debye):
    X=             -0.0000    Y=              0.0000    Z=             -0.0000  Tot=              0.0000
 Quadrupole moment (field-independent basis, Debye-Ang):
   XX=            -25.2424   YY=            -24.0335   ZZ=            -77.8295
   XY=             -0.0000   XZ=              0.0000   YZ=             -0.0000

 Normal termination of Gaussian 16 at Sat Jan  7 04:36:53 2023.
