 Gaussian 16, Revision A.03,
 Gaussian 16:  ES64L-G16RevA.03 25-Dec-2016

 ------------------------------------------------
 #p CCSD(T,MaxCyc=300)/cc-pVTZ Guess=Read SCF=XQC
 ------------------------------------------------

 ---------
 O2_O2_278
 ---------
 Symbolic Z-matrix:
 Charge = -2 Multiplicity = 5

                         Standard orientation:
 ---------------------------------------------------------------------
 Center     Atomic      Atomic             Coordinates (Angstroms)
 Number     Number       Type             X           Y           Z
 ---------------------------------------------------------------------
      1          8           0        0.000000    0.000000    2.760619
      2          8           0        0.000000    0.000000    4.112999
      3          8           0        0.000000    0.000000   -4.112999
      4          8           0        0.000000    0.000000   -2.760619
 ---------------------------------------------------------------------

 SCF Done:  E(UHF) =  -298.771090346     A.U. after    9 cycles
 E2 =    -0.1272521521D+01 EUMP2 =    -0.30004361186743D+03
 CCSD(T)
 CCSD(T)= -0.29995230284D+03

 Unable to determine electronic state:  an orbital has unidentified symmetry.
 Alpha  occ. eigenvalues --  -20.25200 -20.25200 -20.22344 -20.22344  -1.12906
 Alpha  occ. eigenvalues --   -1.12906  -0.76891  -0.76883  -0.31416  -0.31415
 Alpha  occ. eigenvalues --   -0.28758  -0.28758  -0.27055  -0.26836  -0.10949
 Alpha  occ. eigenvalues --   -0.10948  -0.08401  -0.08400   0.42517
 Alpha virt. eigenvalues --    0.50702   1.05799   1.06047   1.09390   1.09398
 Alpha virt. eigenvalues --    1.10748   1.10754   1.13871   1.14237   1.18065
 Alpha virt. eigenvalues --    1.18087   1.19258   1.19281   1.32309   1.32312

  Beta  occ. eigenvalues --  -20.19363 -20.19363 -20.17174 -20.17174  -0.96533
  Beta  occ. eigenvalues --   -0.96531  -0.57681  -0.57655  -0.17542  -0.17535
  Beta  occ. eigenvalues --   -0.11775  -0.11601  -0.04593  -0.04592   0.24086
  Beta virt. eigenvalues --    0.31815   0.51990   0.51992   0.76613   0.76743
  Beta virt. eigenvalues --    1.14522   1.14679   1.16951   1.16955   1.17583
  Beta virt. eigenvalues --    1.17697   1.19030   1.19032   1.26091   1.26098

 Mulliken charges and spin densities:
               1          2
     1  O   -0.408744   1.093248
     2  O   -0.591256   0.906752
     3  O   -0.591256   0.906752
     4  O   -0.408744   1.093248
 Sum of Mulliken charges =  -2.00000   4.00000

 Dipole moment (field-independent basis, Debye):
    X=             -0.0000    Y=             -0.0000    Z=              0.0000  Tot=              0.0000
 Quadrupole moment (field-independent basis, Debye-Ang):
   XX=            -25.1297   YY=            -23.9653   ZZ=           -155.2698
   XY=             -0.0000   XZ=              0.0000   YZ=             -0.0000

 Normal termination of Gaussian 16 at Sat Jan  7 09:42:40 2023.
