 Gaussian 16, Revision A.03,
 Gaussian 16:  ES64L-G16RevA.03 25-Dec-2016

 ------------------------------------------------
 #p CCSD(T,MaxCyc=300)/cc-pVTZ Guess=Read SCF=XQC
 ------------------------------------------------

 ---------
 O2_O2_167
 ---------
 Symbolic Z-matrix:
 Charge = -2 Multiplicity = 5

                         Standard orientation:
 ---------------------------------------------------------------------
 Center     Atomic      Atomic             Coordinates (Angstroms)
 Number     Number       Type             X           Y           Z
 ---------------------------------------------------------------------
      1          8           0        0.000000    0.000000    1.974817
      2          8           0        0.000000    0.000000    3.327197
      3          8           0        0.000000    0.000000   -3.327197
      4          8           0        0.000000    0.000000   -1.974817
 ---------------------------------------------------------------------

 SCF Done:  E(UHF) =  -298.774733432     A.U. after   16 cycles
 E2 =    -0.1151278343D+01 EUMP2 =    -0.29992601177505D+03
 CCSD(T)
 CCSD(T)= -0.29991982755D+03

 Unable to determine electronic state:  an orbital has unidentified symmetry.
 Alpha  occ. eigenvalues --  -20.24171 -20.24170 -20.20054 -20.20054  -1.10964
 Alpha  occ. eigenvalues --   -1.10956  -0.74762  -0.74685  -0.29640  -0.29618
 Alpha  occ. eigenvalues --   -0.26937  -0.26915  -0.24733  -0.23942  -0.08943
 Alpha  occ. eigenvalues --   -0.08909  -0.06435  -0.06394   0.42535
 Alpha virt. eigenvalues --    0.56648   1.03411   1.10797   1.11178   1.11685
 Alpha virt. eigenvalues --    1.12555   1.12983   1.13632   1.19733   1.20806
 Alpha virt. eigenvalues --    1.20898   1.22057   1.24740   1.34273   1.34320

  Beta  occ. eigenvalues --  -20.18402 -20.18401 -20.15050 -20.15050  -0.94909
  Beta  occ. eigenvalues --   -0.94895  -0.55859  -0.55721  -0.15807  -0.15530
  Beta  occ. eigenvalues --   -0.10029  -0.09602  -0.02818  -0.02791   0.24660
  Beta virt. eigenvalues --    0.35034   0.53967   0.54157   0.76564   0.81208
  Beta virt. eigenvalues --    1.12200   1.17533   1.18446   1.18742   1.19135
  Beta virt. eigenvalues --    1.20812   1.21048   1.27722   1.28267   1.28771

 Mulliken charges and spin densities:
               1          2
     1  O   -0.378456   1.118588
     2  O   -0.621544   0.881412
     3  O   -0.621544   0.881412
     4  O   -0.378456   1.118588
 Sum of Mulliken charges =  -2.00000   4.00000

 Dipole moment (field-independent basis, Debye):
    X=             -0.0000    Y=              0.0000    Z=              0.0000  Tot=              0.0000
 Quadrupole moment (field-independent basis, Debye-Ang):
   XX=            -25.1571   YY=            -23.9966   ZZ=           -108.8733
   XY=             -0.0000   XZ=              0.0000   YZ=             -0.0000

 Normal termination of Gaussian 16 at Sat Jan  7 06:49:27 2023.
