 Gaussian 16, Revision A.03,
 Gaussian 16:  ES64L-G16RevA.03 25-Dec-2016

 ------------------------------------------------
 #p CCSD(T,MaxCyc=300)/cc-pVTZ Guess=Read SCF=XQC
 ------------------------------------------------

 ---------
 O2_O2_174
 ---------
 Symbolic Z-matrix:
 Charge = -2 Multiplicity = 5

                         Standard orientation:
 ---------------------------------------------------------------------
 Center     Atomic      Atomic             Coordinates (Angstroms)
 Number     Number       Type             X           Y           Z
 ---------------------------------------------------------------------
      1          8           0        0.000000    0.000000    2.024372
      2          8           0        0.000000    0.000000    3.376752
      3          8           0        0.000000    0.000000   -3.376752
      4          8           0        0.000000    0.000000   -2.024372
 ---------------------------------------------------------------------

 SCF Done:  E(UHF) =  -298.773313914     A.U. after   16 cycles
 E2 =    -0.1160721564D+01 EUMP2 =    -0.29993403547888D+03
 CCSD(T)
 CCSD(T)= -0.29992236730D+03

 Unable to determine electronic state:  an orbital has unidentified symmetry.
 Alpha  occ. eigenvalues --  -20.24188 -20.24187 -20.20216 -20.20215  -1.11098
 Alpha  occ. eigenvalues --   -1.11092  -0.74918  -0.74855  -0.29752  -0.29735
 Alpha  occ. eigenvalues --   -0.27052  -0.27035  -0.24921  -0.24213  -0.09078
 Alpha  occ. eigenvalues --   -0.09051  -0.06567  -0.06535   0.42628
 Alpha virt. eigenvalues --    0.56006   1.03897   1.10554   1.11085   1.11484
 Alpha virt. eigenvalues --    1.12456   1.12792   1.13750   1.19675   1.20515
 Alpha virt. eigenvalues --    1.20846   1.21756   1.22876   1.34136   1.34170

  Beta  occ. eigenvalues --  -20.18401 -20.18401 -20.15196 -20.15196  -0.94994
  Beta  occ. eigenvalues --   -0.94983  -0.55972  -0.55853  -0.15902  -0.15674
  Beta  occ. eigenvalues --   -0.10136  -0.09738  -0.02932  -0.02911   0.24650
  Beta virt. eigenvalues --    0.34785   0.53840   0.53990   0.76672   0.80792
  Beta virt. eigenvalues --    1.12710   1.17409   1.18392   1.18644   1.18954
  Beta virt. eigenvalues --    1.20706   1.20891   1.26492   1.27669   1.28483

 Mulliken charges and spin densities:
               1          2
     1  O   -0.380675   1.116226
     2  O   -0.619325   0.883774
     3  O   -0.619325   0.883774
     4  O   -0.380675   1.116226
 Sum of Mulliken charges =  -2.00000   4.00000

 Dipole moment (field-independent basis, Debye):
    X=             -0.0000    Y=             -0.0000    Z=             -0.0000  Tot=              0.0000
 Quadrupole moment (field-independent basis, Debye-Ang):
   XX=            -25.1538   YY=            -23.9927   ZZ=           -111.5643
   XY=             -0.0000   XZ=              0.0000   YZ=             -0.0000

 Normal termination of Gaussian 16 at Sat Jan  7 07:00:11 2023.
