 Gaussian 16, Revision A.03,
 Gaussian 16:  ES64L-G16RevA.03 25-Dec-2016

 ------------------------------------------------
 #p CCSD(T,MaxCyc=300)/cc-pVTZ Guess=Read SCF=XQC
 ------------------------------------------------

 --------
 O2_O2_72
 --------
 Symbolic Z-matrix:
 Charge = -2 Multiplicity = 5

                         Standard orientation:
 ---------------------------------------------------------------------
 Center     Atomic      Atomic             Coordinates (Angstroms)
 Number     Number       Type             X           Y           Z
 ---------------------------------------------------------------------
      1          8           0        0.000000    0.000000    1.302285
      2          8           0        0.000000    0.000000    2.654665
      3          8           0        0.000000    0.000000   -2.654665
      4          8           0        0.000000    0.000000   -1.302285
 ---------------------------------------------------------------------

 SCF Done:  E(UHF) =  -298.780453946     A.U. after   14 cycles
 E2 =    -0.1063409350D+01 EUMP2 =    -0.29984386329574D+03
 CCSD(T)
 CCSD(T)= -0.29987692919D+03

 Unable to determine electronic state:  an orbital has unidentified symmetry.
 Alpha  occ. eigenvalues --  -20.19750 -20.19747 -20.16108 -20.16108  -1.07259
 Alpha  occ. eigenvalues --   -1.07044  -0.71426  -0.70230  -0.25550  -0.25150
 Alpha  occ. eigenvalues --   -0.23348  -0.22870  -0.22503  -0.18016  -0.05618
 Alpha  occ. eigenvalues --   -0.04865  -0.02735  -0.02042   0.41945
 Alpha virt. eigenvalues --    0.65962   1.10531   1.12601   1.13444   1.13528
 Alpha virt. eigenvalues --    1.15813   1.17507   1.18446   1.19592   1.21299
 Alpha virt. eigenvalues --    1.31956   1.32910   1.37310   1.37992   1.72685

  Beta  occ. eigenvalues --  -20.13993 -20.13992 -20.10809 -20.10809  -0.90727
  Beta  occ. eigenvalues --   -0.90410  -0.52471  -0.50622  -0.12981  -0.09486
  Beta  occ. eigenvalues --   -0.06771  -0.05603   0.01241   0.01976   0.25649
  Beta virt. eigenvalues --    0.44029   0.56799   0.58879   0.82090   0.88057
  Beta virt. eigenvalues --    1.18810   1.19420   1.21111   1.22507   1.22871
  Beta virt. eigenvalues --    1.25027   1.26110   1.27822   1.31462   1.39004

 Mulliken charges and spin densities:
               1          2
     1  O   -0.375758   1.026851
     2  O   -0.624242   0.973149
     3  O   -0.624242   0.973149
     4  O   -0.375758   1.026851
 Sum of Mulliken charges =  -2.00000   4.00000

 Dipole moment (field-independent basis, Debye):
    X=             -0.0000    Y=              0.0000    Z=              0.0000  Tot=              0.0000
 Quadrupole moment (field-independent basis, Debye-Ang):
   XX=            -25.2478   YY=            -24.0327   ZZ=            -77.0504
   XY=             -0.0000   XZ=              0.0000   YZ=             -0.0000

 Normal termination of Gaussian 16 at Sat Jan  7 04:32:45 2023.
