 Gaussian 16, Revision A.03,
 Gaussian 16:  ES64L-G16RevA.03 25-Dec-2016

 ------------------------------------------------
 #p CCSD(T,MaxCyc=300)/cc-pVTZ Guess=Read SCF=XQC
 ------------------------------------------------

 ---------
 O2_O2_243
 ---------
 Symbolic Z-matrix:
 Charge = -2 Multiplicity = 5

                         Standard orientation:
 ---------------------------------------------------------------------
 Center     Atomic      Atomic             Coordinates (Angstroms)
 Number     Number       Type             X           Y           Z
 ---------------------------------------------------------------------
      1          8           0        0.000000    0.000000    2.512843
      2          8           0        0.000000    0.000000    3.865223
      3          8           0        0.000000    0.000000   -3.865223
      4          8           0        0.000000    0.000000   -2.512843
 ---------------------------------------------------------------------

 SCF Done:  E(UHF) =  -298.769184207     A.U. after   10 cycles
 E2 =    -0.1241197279D+01 EUMP2 =    -0.30001038148526D+03
 CCSD(T)
 CCSD(T)= -0.29994391208D+03

 Unable to determine electronic state:  an orbital has unidentified symmetry.
 Alpha  occ. eigenvalues --  -20.24751 -20.24750 -20.21653 -20.21652  -1.12327
 Alpha  occ. eigenvalues --   -1.12326  -0.76281  -0.76268  -0.30858  -0.30857
 Alpha  occ. eigenvalues --   -0.28188  -0.28187  -0.26449  -0.26153  -0.10338
 Alpha  occ. eigenvalues --   -0.10337  -0.07803  -0.07801   0.42739
 Alpha virt. eigenvalues --    0.51859   1.06112   1.07116   1.09965   1.09992
 Alpha virt. eigenvalues --    1.11321   1.11343   1.14294   1.15224   1.18649
 Alpha virt. eigenvalues --    1.18711   1.19842   1.19909   1.32882   1.32887

  Beta  occ. eigenvalues --  -20.18896 -20.18896 -20.16518 -20.16518  -0.95971
  Beta  occ. eigenvalues --   -0.95968  -0.57099  -0.57062  -0.16957  -0.16933
  Beta  occ. eigenvalues --   -0.11214  -0.10991  -0.04039  -0.04038   0.24342
  Beta virt. eigenvalues --    0.32717   0.52597   0.52606   0.77054   0.77616
  Beta virt. eigenvalues --    1.14883   1.15534   1.17527   1.17546   1.18063
  Beta virt. eigenvalues --    1.18680   1.19590   1.19600   1.26671   1.26712

 Mulliken charges and spin densities:
               1          2
     1  O   -0.400200   1.099854
     2  O   -0.599800   0.900146
     3  O   -0.599800   0.900146
     4  O   -0.400200   1.099854
 Sum of Mulliken charges =  -2.00000   4.00000

 Dipole moment (field-independent basis, Debye):
    X=             -0.0000    Y=              0.0000    Z=              0.0000  Tot=              0.0000
 Quadrupole moment (field-independent basis, Debye-Ang):
   XX=            -25.1337   YY=            -23.9689   ZZ=           -139.6265
   XY=             -0.0000   XZ=              0.0000   YZ=             -0.0000

 Normal termination of Gaussian 16 at Sat Jan  7 08:46:33 2023.
