 Gaussian 16, Revision A.03,
 Gaussian 16:  ES64L-G16RevA.03 25-Dec-2016

 ------------------------------------------------
 #p CCSD(T,MaxCyc=300)/cc-pVTZ Guess=Read SCF=XQC
 ------------------------------------------------

 ---------
 O2_O2_239
 ---------
 Symbolic Z-matrix:
 Charge = -2 Multiplicity = 5

                         Standard orientation:
 ---------------------------------------------------------------------
 Center     Atomic      Atomic             Coordinates (Angstroms)
 Number     Number       Type             X           Y           Z
 ---------------------------------------------------------------------
      1          8           0        0.000000    0.000000    2.484526
      2          8           0        0.000000    0.000000    3.836906
      3          8           0        0.000000    0.000000   -3.836906
      4          8           0        0.000000    0.000000   -2.484526
 ---------------------------------------------------------------------

 SCF Done:  E(UHF) =  -298.769048909     A.U. after   10 cycles
 E2 =    -0.1237313856D+01 EUMP2 =    -0.30000636276447D+03
 CCSD(T)
 CCSD(T)= -0.29994285267D+03

 Unable to determine electronic state:  an orbital has unidentified symmetry.
 Alpha  occ. eigenvalues --  -20.24701 -20.24701 -20.21571 -20.21571  -1.12258
 Alpha  occ. eigenvalues --   -1.12257  -0.76208  -0.76193  -0.30792  -0.30791
 Alpha  occ. eigenvalues --   -0.28121  -0.28120  -0.26374  -0.26066  -0.10266
 Alpha  occ. eigenvalues --   -0.10264  -0.07732  -0.07730   0.42759
 Alpha virt. eigenvalues --    0.52017   1.06116   1.07279   1.10033   1.10064
 Alpha virt. eigenvalues --    1.11389   1.11416   1.14323   1.15381   1.18717
 Alpha virt. eigenvalues --    1.18789   1.19910   1.19988   1.32951   1.32956

  Beta  occ. eigenvalues --  -20.18846 -20.18846 -20.16441 -20.16441  -0.95906
  Beta  occ. eigenvalues --   -0.95903  -0.57031  -0.56991  -0.16889  -0.16861
  Beta  occ. eigenvalues --   -0.11148  -0.10919  -0.03974  -0.03972   0.24370
  Beta virt. eigenvalues --    0.32826   0.52669   0.52680   0.77088   0.77741
  Beta virt. eigenvalues --    1.14897   1.15651   1.17595   1.17617   1.18103
  Beta virt. eigenvalues --    1.18842   1.19657   1.19669   1.26739   1.26789

 Mulliken charges and spin densities:
               1          2
     1  O   -0.399157   1.100640
     2  O   -0.600843   0.899360
     3  O   -0.600843   0.899360
     4  O   -0.399157   1.100640
 Sum of Mulliken charges =  -2.00000   4.00000

 Dipole moment (field-independent basis, Debye):
    X=             -0.0000    Y=             -0.0000    Z=             -0.0000  Tot=              0.0000
 Quadrupole moment (field-independent basis, Debye-Ang):
   XX=            -25.1343   YY=            -23.9695   ZZ=           -137.9073
   XY=             -0.0000   XZ=              0.0000   YZ=             -0.0000

 Normal termination of Gaussian 16 at Sat Jan  7 08:40:05 2023.
