 Gaussian 16, Revision A.03,
 Gaussian 16:  ES64L-G16RevA.03 25-Dec-2016

 ------------------------------------------------
 #p CCSD(T,MaxCyc=300)/cc-pVTZ Guess=Read SCF=XQC
 ------------------------------------------------

 --------
 O2_O2_65
 --------
 Symbolic Z-matrix:
 Charge = -2 Multiplicity = 5

                         Standard orientation:
 ---------------------------------------------------------------------
 Center     Atomic      Atomic             Coordinates (Angstroms)
 Number     Number       Type             X           Y           Z
 ---------------------------------------------------------------------
      1          8           0        0.000000    0.000000    1.252730
      2          8           0        0.000000    0.000000    2.605110
      3          8           0        0.000000    0.000000   -2.605110
      4          8           0        0.000000    0.000000   -1.252730
 ---------------------------------------------------------------------

 SCF Done:  E(UHF) =  -298.779880277     A.U. after   14 cycles
 E2 =    -0.1057020269D+01 EUMP2 =    -0.29983690054586D+03
 CCSD(T)
 CCSD(T)= -0.29987238675D+03

 Unable to determine electronic state:  an orbital has unidentified symmetry.
 Alpha  occ. eigenvalues --  -20.19111 -20.19108 -20.15656 -20.15656  -1.06893
 Alpha  occ. eigenvalues --   -1.06614  -0.71186  -0.69687  -0.25142  -0.24652
 Alpha  occ. eigenvalues --   -0.22976  -0.22498  -0.22377  -0.17306  -0.05262
 Alpha  occ. eigenvalues --   -0.04315  -0.02371  -0.01522   0.41975
 Alpha virt. eigenvalues --    0.66750   1.10423   1.12819   1.13378   1.13671
 Alpha virt. eigenvalues --    1.16128   1.17906   1.19703   1.21502   1.22190
 Alpha virt. eigenvalues --    1.33290   1.34170   1.37559   1.38335   1.76135

  Beta  occ. eigenvalues --  -20.13342 -20.13340 -20.10312 -20.10312  -0.90232
  Beta  occ. eigenvalues --   -0.89824  -0.52260  -0.49955  -0.12832  -0.08604
  Beta  occ. eigenvalues --   -0.06466  -0.05197   0.01533   0.02476   0.25683
  Beta virt. eigenvalues --    0.45216   0.57095   0.59483   0.82791   0.88701
  Beta virt. eigenvalues --    1.19013   1.19814   1.21455   1.22658   1.23191
  Beta virt. eigenvalues --    1.26650   1.27936   1.28000   1.31792   1.39283

 Mulliken charges and spin densities:
               1          2
     1  O   -0.374411   1.011993
     2  O   -0.625589   0.988007
     3  O   -0.625589   0.988007
     4  O   -0.374411   1.011993
 Sum of Mulliken charges =  -2.00000   4.00000

 Dipole moment (field-independent basis, Debye):
    X=             -0.0000    Y=              0.0000    Z=              0.0000  Tot=              0.0000
 Quadrupole moment (field-independent basis, Debye-Ang):
   XX=            -25.2610   YY=            -24.0308   ZZ=            -75.3007
   XY=             -0.0000   XZ=              0.0000   YZ=             -0.0000

 Normal termination of Gaussian 16 at Sat Jan  7 04:23:05 2023.
