 Gaussian 16, Revision A.03,
 Gaussian 16:  ES64L-G16RevA.03 25-Dec-2016

 ------------------------------------------------
 #p CCSD(T,MaxCyc=300)/cc-pVTZ Guess=Read SCF=XQC
 ------------------------------------------------

 ---------
 O2_O2_261
 ---------
 Symbolic Z-matrix:
 Charge = -2 Multiplicity = 5

                         Standard orientation:
 ---------------------------------------------------------------------
 Center     Atomic      Atomic             Coordinates (Angstroms)
 Number     Number       Type             X           Y           Z
 ---------------------------------------------------------------------
      1          8           0        0.000000    0.000000    2.640271
      2          8           0        0.000000    0.000000    3.992651
      3          8           0        0.000000    0.000000   -3.992651
      4          8           0        0.000000    0.000000   -2.640271
 ---------------------------------------------------------------------

 SCF Done:  E(UHF) =  -298.770046005     A.U. after   15 cycles
 E2 =    -0.1257812200D+01 EUMP2 =    -0.30002785820467D+03
 CCSD(T)
 CCSD(T)= -0.29994841103D+03

 Unable to determine electronic state:  an orbital has unidentified symmetry.
 Alpha  occ. eigenvalues --  -20.24980 -20.24980 -20.22015 -20.22015  -1.12631
 Alpha  occ. eigenvalues --   -1.12631  -0.76603  -0.76593  -0.31150  -0.31149
 Alpha  occ. eigenvalues --   -0.28487  -0.28486  -0.26772  -0.26520  -0.10659
 Alpha  occ. eigenvalues --   -0.10658  -0.08117  -0.08116   0.42632
 Alpha virt. eigenvalues --    0.51220   1.05998   1.06498   1.09663   1.09677
 Alpha virt. eigenvalues --    1.11020   1.11031   1.14104   1.14651   1.18343
 Alpha virt. eigenvalues --    1.18378   1.19536   1.19573   1.32580   1.32584

  Beta  occ. eigenvalues --  -20.19133 -20.19133 -20.16861 -20.16861  -0.96262
  Beta  occ. eigenvalues --   -0.96260  -0.57403  -0.57372  -0.17261  -0.17249
  Beta  occ. eigenvalues --   -0.11507  -0.11311  -0.04329  -0.04329   0.24212
  Beta virt. eigenvalues --    0.32240   0.52279   0.52283   0.76851   0.77124
  Beta virt. eigenvalues --    1.14736   1.15058   1.17225   1.17233   1.17837
  Beta virt. eigenvalues --    1.18103   1.19297   1.19301   1.26368   1.26385

 Mulliken charges and spin densities:
               1          2
     1  O   -0.404742   1.096378
     2  O   -0.595258   0.903622
     3  O   -0.595258   0.903622
     4  O   -0.404742   1.096378
 Sum of Mulliken charges =  -2.00000   4.00000

 Dipole moment (field-independent basis, Debye):
    X=             -0.0000    Y=              0.0000    Z=              0.0000  Tot=              0.0000
 Quadrupole moment (field-independent basis, Debye-Ang):
   XX=            -25.1314   YY=            -23.9666   ZZ=           -147.5325
   XY=             -0.0000   XZ=              0.0000   YZ=             -0.0000

 Normal termination of Gaussian 16 at Sat Jan  7 09:15:31 2023.
