 Gaussian 16, Revision A.03,
 Gaussian 16:  ES64L-G16RevA.03 25-Dec-2016

 ------------------------------------------------
 #p CCSD(T,MaxCyc=300)/cc-pVTZ Guess=Read SCF=XQC
 ------------------------------------------------

 ---------
 O2_O2_248
 ---------
 Symbolic Z-matrix:
 Charge = -2 Multiplicity = 5

                         Standard orientation:
 ---------------------------------------------------------------------
 Center     Atomic      Atomic             Coordinates (Angstroms)
 Number     Number       Type             X           Y           Z
 ---------------------------------------------------------------------
      1          8           0        0.000000    0.000000    2.548240
      2          8           0        0.000000    0.000000    3.900620
      3          8           0        0.000000    0.000000   -3.900620
      4          8           0        0.000000    0.000000   -2.548240
 ---------------------------------------------------------------------

 SCF Done:  E(UHF) =  -298.769386515     A.U. after    9 cycles
 E2 =    -0.1245945531D+01 EUMP2 =    -0.30001533204586D+03
 CCSD(T)
 CCSD(T)= -0.29994520364D+03

 Unable to determine electronic state:  an orbital has unidentified symmetry.
 Alpha  occ. eigenvalues --  -20.24814 -20.24813 -20.21754 -20.21754  -1.12413
 Alpha  occ. eigenvalues --   -1.12412  -0.76372  -0.76360  -0.30940  -0.30939
 Alpha  occ. eigenvalues --   -0.28272  -0.28271  -0.26541  -0.26259  -0.10428
 Alpha  occ. eigenvalues --   -0.10427  -0.07892  -0.07890   0.42711
 Alpha virt. eigenvalues --    0.51670   1.06095   1.06927   1.09880   1.09902
 Alpha virt. eigenvalues --    1.11237   1.11255   1.14250   1.15046   1.18563
 Alpha virt. eigenvalues --    1.18615   1.19756   1.19812   1.32797   1.32801

  Beta  occ. eigenvalues --  -20.18960 -20.18960 -20.16614 -20.16614  -0.96052
  Beta  occ. eigenvalues --   -0.96049  -0.57184  -0.57149  -0.17042  -0.17022
  Beta  occ. eigenvalues --   -0.11296  -0.11081  -0.04121  -0.04120   0.24307
  Beta virt. eigenvalues --    0.32582   0.52508   0.52515   0.77005   0.77468
  Beta virt. eigenvalues --    1.14855   1.15394   1.17442   1.17457   1.18007
  Beta virt. eigenvalues --    1.18498   1.19508   1.19516   1.26586   1.26619

 Mulliken charges and spin densities:
               1          2
     1  O   -0.401487   1.098878
     2  O   -0.598513   0.901122
     3  O   -0.598513   0.901122
     4  O   -0.401487   1.098878
 Sum of Mulliken charges =  -2.00000   4.00000

 Dipole moment (field-independent basis, Debye):
    X=             -0.0000    Y=              0.0000    Z=             -0.0000  Tot=              0.0000
 Quadrupole moment (field-independent basis, Debye-Ang):
   XX=            -25.1330   YY=            -23.9681   ZZ=           -141.7943
   XY=             -0.0000   XZ=              0.0000   YZ=             -0.0000

 Normal termination of Gaussian 16 at Sat Jan  7 08:54:36 2023.
