 Gaussian 16, Revision A.03,
 Gaussian 16:  ES64L-G16RevA.03 25-Dec-2016

 ------------------------------------------------
 #p CCSD(T,MaxCyc=300)/cc-pVTZ Guess=Read SCF=XQC
 ------------------------------------------------

 --------
 O2_O2_80
 --------
 Symbolic Z-matrix:
 Charge = -2 Multiplicity = 5

                         Standard orientation:
 ---------------------------------------------------------------------
 Center     Atomic      Atomic             Coordinates (Angstroms)
 Number     Number       Type             X           Y           Z
 ---------------------------------------------------------------------
      1          8           0        0.000000    0.000000    1.358919
      2          8           0        0.000000    0.000000    2.711299
      3          8           0        0.000000    0.000000   -2.711299
      4          8           0        0.000000    0.000000   -1.358919
 ---------------------------------------------------------------------

 SCF Done:  E(UHF) =  -298.781139190     A.U. after   14 cycles
 E2 =    -0.1070278312D+01 EUMP2 =    -0.29985141750255D+03
 CCSD(T)
 CCSD(T)= -0.29988168934D+03

 Unable to determine electronic state:  an orbital has unidentified symmetry.
 Alpha  occ. eigenvalues --  -20.20477 -20.20475 -20.16592 -20.16592  -1.07682
 Alpha  occ. eigenvalues --   -1.07523  -0.71736  -0.70809  -0.26030  -0.25712
 Alpha  occ. eigenvalues --   -0.23783  -0.23413  -0.22562  -0.18751  -0.06028
 Alpha  occ. eigenvalues --   -0.05450  -0.03159  -0.02609   0.41892
 Alpha virt. eigenvalues --    0.65147   1.10678   1.12404   1.13425   1.13476
 Alpha virt. eigenvalues --    1.14630   1.15454   1.17050   1.19533   1.21128
 Alpha virt. eigenvalues --    1.30448   1.31488   1.37009   1.37599   1.68386

  Beta  occ. eigenvalues --  -20.14733 -20.14732 -20.11348 -20.11348  -0.91296
  Beta  occ. eigenvalues --   -0.91058  -0.52777  -0.51337  -0.13215  -0.10407
  Beta  occ. eigenvalues --   -0.07121  -0.06051   0.00869   0.01418   0.25556
  Beta virt. eigenvalues --    0.42742   0.56458   0.58231   0.81267   0.87343
  Beta virt. eigenvalues --    1.18628   1.18636   1.20765   1.22381   1.22423
  Beta virt. eigenvalues --    1.22515   1.25494   1.27705   1.31159   1.38670

 Mulliken charges and spin densities:
               1          2
     1  O   -0.375938   1.044216
     2  O   -0.624062   0.955784
     3  O   -0.624062   0.955784
     4  O   -0.375938   1.044216
 Sum of Mulliken charges =  -2.00000   4.00000

 Dipole moment (field-independent basis, Debye):
    X=             -0.0000    Y=             -0.0000    Z=              0.0000  Tot=              0.0000
 Quadrupole moment (field-independent basis, Debye-Ang):
   XX=            -25.2338   YY=            -24.0348   ZZ=            -79.1733
   XY=             -0.0000   XZ=              0.0000   YZ=             -0.0000

 Normal termination of Gaussian 16 at Sat Jan  7 04:43:43 2023.
