 Gaussian 16, Revision A.03,
 Gaussian 16:  ES64L-G16RevA.03 25-Dec-2016

 ------------------------------------------------
 #p CCSD(T,MaxCyc=300)/cc-pVTZ Guess=Read SCF=XQC
 ------------------------------------------------

 --------
 O2_O2_26
 --------
 Symbolic Z-matrix:
 Charge = -2 Multiplicity = 5

                         Standard orientation:
 ---------------------------------------------------------------------
 Center     Atomic      Atomic             Coordinates (Angstroms)
 Number     Number       Type             X           Y           Z
 ---------------------------------------------------------------------
      1          8           0        0.000000    0.000000    0.976637
      2          8           0        0.000000    0.000000    2.329017
      3          8           0        0.000000    0.000000   -2.329017
      4          8           0        0.000000    0.000000   -0.976637
 ---------------------------------------------------------------------

 SCF Done:  E(UHF) =  -298.767982637     A.U. after   13 cycles
 E2 =    -0.1013764687D+01 EUMP2 =    -0.29978174732429D+03
 CCSD(T)
 CCSD(T)= -0.29983013199D+03

 Unable to determine electronic state:  an orbital has unidentified symmetry.
 Alpha  occ. eigenvalues --  -20.14978 -20.14971 -20.12530 -20.12530  -1.04998
 Alpha  occ. eigenvalues --   -1.03716  -0.71003  -0.65457  -0.23669  -0.23012
 Alpha  occ. eigenvalues --   -0.21467  -0.21127  -0.18969  -0.11225  -0.03524
 Alpha  occ. eigenvalues --   -0.00486  -0.00139   0.02187   0.41452
 Alpha virt. eigenvalues --    0.74023   1.09984   1.12524   1.15598   1.16323
 Alpha virt. eigenvalues --    1.17954   1.20214   1.21924   1.23922   1.38580
 Alpha virt. eigenvalues --    1.39190   1.40415   1.40906   1.46665   1.90652

  Beta  occ. eigenvalues --  -20.09266 -20.09261 -20.06891 -20.06891  -0.87747
  Beta  occ. eigenvalues --   -0.85955  -0.52958  -0.44964  -0.13116  -0.04804
  Beta  occ. eigenvalues --   -0.02539  -0.01167   0.02190   0.05923   0.24663
  Beta virt. eigenvalues --    0.53396   0.58764   0.63707   0.86490   0.92893
  Beta virt. eigenvalues --    1.20689   1.21130   1.24213   1.25049   1.25173
  Beta virt. eigenvalues --    1.29894   1.31297   1.35075   1.40554   1.41308

 Mulliken charges and spin densities:
               1          2
     1  O   -0.355203   0.917085
     2  O   -0.644797   1.082915
     3  O   -0.644797   1.082915
     4  O   -0.355203   0.917085
 Sum of Mulliken charges =  -2.00000   4.00000

 Dipole moment (field-independent basis, Debye):
    X=             -0.0000    Y=              0.0000    Z=              0.0000  Tot=              0.0000
 Quadrupole moment (field-independent basis, Debye-Ang):
   XX=            -25.2922   YY=            -23.9711   ZZ=            -66.8895
   XY=             -0.0000   XZ=              0.0000   YZ=             -0.0000

 Normal termination of Gaussian 16 at Sat Jan  7 03:28:59 2023.
