 Gaussian 16, Revision A.03,
 Gaussian 16:  ES64L-G16RevA.03 25-Dec-2016

 ------------------------------------------------
 #p CCSD(T,MaxCyc=300)/cc-pVTZ Guess=Read SCF=XQC
 ------------------------------------------------

 ---------
 O2_O2_226
 ---------
 Symbolic Z-matrix:
 Charge = -2 Multiplicity = 5

                         Standard orientation:
 ---------------------------------------------------------------------
 Center     Atomic      Atomic             Coordinates (Angstroms)
 Number     Number       Type             X           Y           Z
 ---------------------------------------------------------------------
      1          8           0        0.000000    0.000000    2.392496
      2          8           0        0.000000    0.000000    3.744876
      3          8           0        0.000000    0.000000   -3.744876
      4          8           0        0.000000    0.000000   -2.392496
 ---------------------------------------------------------------------

 SCF Done:  E(UHF) =  -298.768815602     A.U. after   10 cycles
 E2 =    -0.1224103026D+01 EUMP2 =    -0.29999291862847D+03
 CCSD(T)
 CCSD(T)= -0.29993925137D+03

 Unable to determine electronic state:  an orbital has unidentified symmetry.
 Alpha  occ. eigenvalues --  -20.24549 -20.24548 -20.21303 -20.21303  -1.12030
 Alpha  occ. eigenvalues --   -1.12029  -0.75964  -0.75945  -0.30578  -0.30575
 Alpha  occ. eigenvalues --   -0.27902  -0.27899  -0.26119  -0.25767  -0.10029
 Alpha  occ. eigenvalues --   -0.10025  -0.07500  -0.07495   0.42811
 Alpha virt. eigenvalues --    0.52582   1.06051   1.07874   1.10256   1.10310
 Alpha virt. eigenvalues --    1.11613   1.11657   1.14369   1.16006   1.18940
 Alpha virt. eigenvalues --    1.19057   1.20132   1.20258   1.33180   1.33185

  Beta  occ. eigenvalues --  -20.18693 -20.18693 -20.16190 -20.16190  -0.95699
  Beta  occ. eigenvalues --   -0.95696  -0.56809  -0.56762  -0.16671  -0.16627
  Beta  occ. eigenvalues --   -0.10935  -0.10682  -0.03760  -0.03757   0.24454
  Beta virt. eigenvalues --    0.33190   0.52905   0.52925   0.77160   0.78196
  Beta virt. eigenvalues --    1.14869   1.16046   1.17817   1.17857   1.18204
  Beta virt. eigenvalues --    1.19502   1.19874   1.19896   1.26959   1.27052

 Mulliken charges and spin densities:
               1          2
     1  O   -0.395685   1.103250
     2  O   -0.604315   0.896750
     3  O   -0.604315   0.896750
     4  O   -0.395685   1.103250
 Sum of Mulliken charges =  -2.00000   4.00000

 Dipole moment (field-independent basis, Debye):
    X=             -0.0000    Y=              0.0000    Z=             -0.0000  Tot=              0.0000
 Quadrupole moment (field-independent basis, Debye-Ang):
   XX=            -25.1367   YY=            -23.9721   ZZ=           -132.4102
   XY=             -0.0000   XZ=              0.0000   YZ=             -0.0000

 Normal termination of Gaussian 16 at Sat Jan  7 08:20:31 2023.
