 Gaussian 16, Revision A.03,
 Gaussian 16:  ES64L-G16RevA.03 25-Dec-2016

 ------------------------------------------------
 #p CCSD(T,MaxCyc=300)/cc-pVTZ Guess=Read SCF=XQC
 ------------------------------------------------

 --------
 O2_O2_95
 --------
 Symbolic Z-matrix:
 Charge = -2 Multiplicity = 5

                         Standard orientation:
 ---------------------------------------------------------------------
 Center     Atomic      Atomic             Coordinates (Angstroms)
 Number     Number       Type             X           Y           Z
 ---------------------------------------------------------------------
      1          8           0        0.000000    0.000000    1.465108
      2          8           0        0.000000    0.000000    2.817488
      3          8           0        0.000000    0.000000   -2.817488
      4          8           0        0.000000    0.000000   -1.465108
 ---------------------------------------------------------------------

 SCF Done:  E(UHF) =  -298.782483201     A.U. after   16 cycles
 E2 =    -0.1082127785D+01 EUMP2 =    -0.29986461098610D+03
 CCSD(T)
 CCSD(T)= -0.29988973042D+03

 Unable to determine electronic state:  an orbital has unidentified symmetry.
 Alpha  occ. eigenvalues --  -20.21839 -20.21838 -20.17378 -20.17378  -1.08485
 Alpha  occ. eigenvalues --   -1.08392  -0.72375  -0.71793  -0.26971  -0.26760
 Alpha  occ. eigenvalues --   -0.24609  -0.24380  -0.22802  -0.19966  -0.06759
 Alpha  occ. eigenvalues --   -0.06413  -0.03957  -0.03602   0.41782
 Alpha virt. eigenvalues --    0.63751   1.08815   1.11013   1.12086   1.13291
 Alpha virt. eigenvalues --    1.13512   1.14785   1.16190   1.19576   1.20956
 Alpha virt. eigenvalues --    1.27755   1.28961   1.36410   1.36856   1.59520

  Beta  occ. eigenvalues --  -20.16107 -20.16106 -20.12249 -20.12249  -0.92346
  Beta  occ. eigenvalues --   -0.92206  -0.53469  -0.52558  -0.13789  -0.11926
  Beta  occ. eigenvalues --   -0.07770  -0.06844   0.00065   0.00373   0.25287
  Beta virt. eigenvalues --    0.40499   0.55834   0.57149   0.79713   0.86059
  Beta virt. eigenvalues --    1.15632   1.18418   1.20198   1.20267   1.21879
  Beta virt. eigenvalues --    1.22173   1.24342   1.27653   1.30772   1.35984

 Mulliken charges and spin densities:
               1          2
     1  O   -0.371242   1.079559
     2  O   -0.628758   0.920441
     3  O   -0.628758   0.920441
     4  O   -0.371242   1.079559
 Sum of Mulliken charges =  -2.00000   4.00000

 Dipole moment (field-independent basis, Debye):
    X=             -0.0000    Y=              0.0000    Z=             -0.0000  Tot=              0.0000
 Quadrupole moment (field-independent basis, Debye-Ang):
   XX=            -25.2127   YY=            -24.0371   ZZ=            -83.6200
   XY=             -0.0000   XZ=              0.0000   YZ=             -0.0000

 Normal termination of Gaussian 16 at Sat Jan  7 05:04:14 2023.
