 Gaussian 16, Revision A.03,
 Gaussian 16:  ES64L-G16RevA.03 25-Dec-2016

 ------------------------------------------------
 #p CCSD(T,MaxCyc=300)/cc-pVTZ Guess=Read SCF=XQC
 ------------------------------------------------

 ---------
 O2_O2_165
 ---------
 Symbolic Z-matrix:
 Charge = -2 Multiplicity = 5

                         Standard orientation:
 ---------------------------------------------------------------------
 Center     Atomic      Atomic             Coordinates (Angstroms)
 Number     Number       Type             X           Y           Z
 ---------------------------------------------------------------------
      1          8           0        0.000000    0.000000    1.960659
      2          8           0        0.000000    0.000000    3.313039
      3          8           0        0.000000    0.000000   -3.313039
      4          8           0        0.000000    0.000000   -1.960659
 ---------------------------------------------------------------------

 SCF Done:  E(UHF) =  -298.775164977     A.U. after   16 cycles
 E2 =    -0.1148590404D+01 EUMP2 =    -0.29992375538082D+03
 CCSD(T)
 CCSD(T)= -0.29991909261D+03

 Unable to determine electronic state:  an orbital has unidentified symmetry.
 Alpha  occ. eigenvalues --  -20.24166 -20.24165 -20.20006 -20.20005  -1.10924
 Alpha  occ. eigenvalues --   -1.10916  -0.74715  -0.74635  -0.29607  -0.29583
 Alpha  occ. eigenvalues --   -0.26903  -0.26879  -0.24678  -0.23862  -0.08903
 Alpha  occ. eigenvalues --   -0.08867  -0.06396  -0.06352   0.42505
 Alpha virt. eigenvalues --    0.56839   1.03275   1.10859   1.11203   1.11746
 Alpha virt. eigenvalues --    1.12582   1.13040   1.13601   1.19747   1.20896
 Alpha virt. eigenvalues --    1.20910   1.22151   1.25325   1.34313   1.34365

  Beta  occ. eigenvalues --  -20.18402 -20.18402 -20.15006 -20.15006  -0.94884
  Beta  occ. eigenvalues --   -0.94869  -0.55825  -0.55681  -0.15779  -0.15487
  Beta  occ. eigenvalues --   -0.09997  -0.09561  -0.02783  -0.02755   0.24663
  Beta virt. eigenvalues --    0.35109   0.54004   0.54208   0.76538   0.81327
  Beta virt. eigenvalues --    1.12057   1.17567   1.18464   1.18769   1.19189
  Beta virt. eigenvalues --    1.20842   1.21095   1.27735   1.28818   1.28861

 Mulliken charges and spin densities:
               1          2
     1  O   -0.377808   1.119286
     2  O   -0.622192   0.880714
     3  O   -0.622192   0.880714
     4  O   -0.377808   1.119286
 Sum of Mulliken charges =  -2.00000   4.00000

 Dipole moment (field-independent basis, Debye):
    X=             -0.0000    Y=              0.0000    Z=              0.0000  Tot=              0.0000
 Quadrupole moment (field-independent basis, Debye-Ang):
   XX=            -25.1581   YY=            -23.9977   ZZ=           -108.1098
   XY=             -0.0000   XZ=              0.0000   YZ=             -0.0000

 Normal termination of Gaussian 16 at Sat Jan  7 06:46:30 2023.
