 Gaussian 16, Revision A.03,
 Gaussian 16:  ES64L-G16RevA.03 25-Dec-2016

 ------------------------------------------------
 #p CCSD(T,MaxCyc=300)/cc-pVTZ Guess=Read SCF=XQC
 ------------------------------------------------

 ---------
 O2_O2_232
 ---------
 Symbolic Z-matrix:
 Charge = -2 Multiplicity = 5

                         Standard orientation:
 ---------------------------------------------------------------------
 Center     Atomic      Atomic             Coordinates (Angstroms)
 Number     Number       Type             X           Y           Z
 ---------------------------------------------------------------------
      1          8           0        0.000000    0.000000    2.434971
      2          8           0        0.000000    0.000000    3.787351
      3          8           0        0.000000    0.000000   -3.787351
      4          8           0        0.000000    0.000000   -2.434971
 ---------------------------------------------------------------------

 SCF Done:  E(UHF) =  -298.768879659     A.U. after   10 cycles
 E2 =    -0.1230318659D+01 EUMP2 =    -0.29999919831838D+03
 CCSD(T)
 CCSD(T)= -0.29994094348D+03

 Unable to determine electronic state:  an orbital has unidentified symmetry.
 Alpha  occ. eigenvalues --  -20.24617 -20.24617 -20.21427 -20.21427  -1.12136
 Alpha  occ. eigenvalues --   -1.12135  -0.76077  -0.76060  -0.30677  -0.30675
 Alpha  occ. eigenvalues --   -0.28003  -0.28001  -0.26239  -0.25908  -0.10139
 Alpha  occ. eigenvalues --   -0.10136  -0.07607  -0.07604   0.42790
 Alpha virt. eigenvalues --    0.52311   1.06098   1.07586   1.10153   1.10195
 Alpha virt. eigenvalues --    1.11509   1.11544   1.14357   1.15693   1.18838
 Alpha virt. eigenvalues --    1.18931   1.20030   1.20130   1.33074   1.33079

  Beta  occ. eigenvalues --  -20.18761 -20.18761 -20.16306 -20.16306  -0.95794
  Beta  occ. eigenvalues --   -0.95791  -0.56911  -0.56868  -0.16771  -0.16736
  Beta  occ. eigenvalues --   -0.11033  -0.10792  -0.03859  -0.03857   0.24416
  Beta virt. eigenvalues --    0.33020   0.52796   0.52811   0.77135   0.77976
  Beta virt. eigenvalues --    1.14898   1.15861   1.17714   1.17745   1.18163
  Beta virt. eigenvalues --    1.19169   1.19774   1.19791   1.26858   1.26928

 Mulliken charges and spin densities:
               1          2
     1  O   -0.397303   1.102033
     2  O   -0.602697   0.897967
     3  O   -0.602697   0.897967
     4  O   -0.397303   1.102033
 Sum of Mulliken charges =  -2.00000   4.00000

 Dipole moment (field-independent basis, Debye):
    X=             -0.0000    Y=              0.0000    Z=             -0.0000  Tot=              0.0000
 Quadrupole moment (field-independent basis, Debye-Ang):
   XX=            -25.1355   YY=            -23.9708   ZZ=           -134.9306
   XY=             -0.0000   XZ=              0.0000   YZ=             -0.0000

 Normal termination of Gaussian 16 at Sat Jan  7 08:29:19 2023.
