 Gaussian 16, Revision A.03,
 Gaussian 16:  ES64L-G16RevA.03 25-Dec-2016

 ------------------------------------------------
 #p CCSD(T,MaxCyc=300)/cc-pVTZ Guess=Read SCF=XQC
 ------------------------------------------------

 ---------
 O2_O2_222
 ---------
 Symbolic Z-matrix:
 Charge = -2 Multiplicity = 5

                         Standard orientation:
 ---------------------------------------------------------------------
 Center     Atomic      Atomic             Coordinates (Angstroms)
 Number     Number       Type             X           Y           Z
 ---------------------------------------------------------------------
      1          8           0        0.000000    0.000000    2.364178
      2          8           0        0.000000    0.000000    3.716558
      3          8           0        0.000000    0.000000   -3.716558
      4          8           0        0.000000    0.000000   -2.364178
 ---------------------------------------------------------------------

 SCF Done:  E(UHF) =  -298.768821364     A.U. after   11 cycles
 E2 =    -0.1219837950D+01 EUMP2 =    -0.29998865931352D+03
 CCSD(T)
 CCSD(T)= -0.29993809448D+03

 Unable to determine electronic state:  an orbital has unidentified symmetry.
 Alpha  occ. eigenvalues --  -20.24505 -20.24504 -20.21220 -20.21220  -1.11959
 Alpha  occ. eigenvalues --   -1.11958  -0.75887  -0.75867  -0.30512  -0.30509
 Alpha  occ. eigenvalues --   -0.27835  -0.27832  -0.26038  -0.25670  -0.09956
 Alpha  occ. eigenvalues --   -0.09951  -0.07428  -0.07422   0.42822
 Alpha virt. eigenvalues --    0.52774   1.06002   1.08077   1.10325   1.10388
 Alpha virt. eigenvalues --    1.11681   1.11734   1.14366   1.16245   1.19007
 Alpha virt. eigenvalues --    1.19144   1.20199   1.20347   1.33252   1.33256

  Beta  occ. eigenvalues --  -20.18651 -20.18651 -20.16113 -20.16113  -0.95637
  Beta  occ. eigenvalues --   -0.95633  -0.56741  -0.56692  -0.16605  -0.16555
  Beta  occ. eigenvalues --   -0.10870  -0.10609  -0.03694  -0.03691   0.24478
  Beta virt. eigenvalues --    0.33304   0.52978   0.53001   0.77168   0.78352
  Beta virt. eigenvalues --    1.14831   1.16171   1.17885   1.17933   1.18225
  Beta virt. eigenvalues --    1.19758   1.19941   1.19968   1.27025   1.27137

 Mulliken charges and spin densities:
               1          2
     1  O   -0.394593   1.104075
     2  O   -0.605407   0.895925
     3  O   -0.605407   0.895925
     4  O   -0.394593   1.104075
 Sum of Mulliken charges =  -2.00000   4.00000

 Dipole moment (field-independent basis, Debye):
    X=             -0.0000    Y=              0.0000    Z=              0.0000  Tot=              0.0000
 Quadrupole moment (field-independent basis, Debye-Ang):
   XX=            -25.1376   YY=            -23.9731   ZZ=           -130.7453
   XY=             -0.0000   XZ=              0.0000   YZ=             -0.0000

 Normal termination of Gaussian 16 at Sat Jan  7 08:14:06 2023.
