 Gaussian 16, Revision A.03,
 Gaussian 16:  ES64L-G16RevA.03 25-Dec-2016

 ------------------------------------------------
 #p CCSD(T,MaxCyc=300)/cc-pVTZ Guess=Read SCF=XQC
 ------------------------------------------------

 --------
 O2_O2_27
 --------
 Symbolic Z-matrix:
 Charge = -2 Multiplicity = 5

                         Standard orientation:
 ---------------------------------------------------------------------
 Center     Atomic      Atomic             Coordinates (Angstroms)
 Number     Number       Type             X           Y           Z
 ---------------------------------------------------------------------
      1          8           0        0.000000    0.000000    0.983716
      2          8           0        0.000000    0.000000    2.336097
      3          8           0        0.000000    0.000000   -2.336097
      4          8           0        0.000000    0.000000   -0.983716
 ---------------------------------------------------------------------

 SCF Done:  E(UHF) =  -298.768832896     A.U. after   12 cycles
 E2 =    -0.1015045472D+01 EUMP2 =    -0.29978387836867D+03
 CCSD(T)
 CCSD(T)= -0.29983194425D+03

 Unable to determine electronic state:  an orbital has unidentified symmetry.
 Alpha  occ. eigenvalues --  -20.15106 -20.15099 -20.12631 -20.12631  -1.05040
 Alpha  occ. eigenvalues --   -1.03808  -0.70964  -0.65605  -0.23605  -0.23063
 Alpha  occ. eigenvalues --   -0.21563  -0.21165  -0.19079  -0.11448  -0.03559
 Alpha  occ. eigenvalues --   -0.00530  -0.00283   0.02063   0.41493
 Alpha virt. eigenvalues --    0.73733   1.09991   1.12547   1.15498   1.16214
 Alpha virt. eigenvalues --    1.17903   1.20149   1.21814   1.23821   1.38567
 Alpha virt. eigenvalues --    1.39150   1.40245   1.40746   1.46156   1.90375

  Beta  occ. eigenvalues --  -20.09387 -20.09383 -20.07002 -20.07002  -0.87796
  Beta  occ. eigenvalues --   -0.86076  -0.52875  -0.45132  -0.13086  -0.04846
  Beta  occ. eigenvalues --   -0.02621  -0.01446   0.02209   0.05811   0.24724
  Beta virt. eigenvalues --    0.53143   0.58716   0.63574   0.86397   0.92763
  Beta virt. eigenvalues --    1.20679   1.21044   1.24133   1.24954   1.25113
  Beta virt. eigenvalues --    1.29800   1.31150   1.34954   1.40529   1.41273

 Mulliken charges and spin densities:
               1          2
     1  O   -0.355854   0.920051
     2  O   -0.644146   1.079949
     3  O   -0.644146   1.079949
     4  O   -0.355854   0.920051
 Sum of Mulliken charges =  -2.00000   4.00000

 Dipole moment (field-independent basis, Debye):
    X=             -0.0000    Y=              0.0000    Z=              0.0000  Tot=              0.0000
 Quadrupole moment (field-independent basis, Debye-Ang):
   XX=            -25.2938   YY=            -23.9750   ZZ=            -67.0761
   XY=             -0.0000   XZ=              0.0000   YZ=             -0.0000

 51892\PMP3-0=-299.752353\MP4SDQ=-299.764331\CCSD=-299.764817\CCSD(T)=-
 Normal termination of Gaussian 16 at Sat Jan  7 03:30:23 2023.
