 Gaussian 16, Revision A.03,
 Gaussian 16:  ES64L-G16RevA.03 25-Dec-2016

 ------------------------------------------------
 #p CCSD(T,MaxCyc=300)/cc-pVTZ Guess=Read SCF=XQC
 ------------------------------------------------

 --------
 O2_O2_97
 --------
 Symbolic Z-matrix:
 Charge = -2 Multiplicity = 5

                         Standard orientation:
 ---------------------------------------------------------------------
 Center     Atomic      Atomic             Coordinates (Angstroms)
 Number     Number       Type             X           Y           Z
 ---------------------------------------------------------------------
      1          8           0        0.000000    0.000000    1.479267
      2          8           0        0.000000    0.000000    2.831647
      3          8           0        0.000000    0.000000   -2.831647
      4          8           0        0.000000    0.000000   -1.479267
 ---------------------------------------------------------------------

 SCF Done:  E(UHF) =  -298.782644478     A.U. after   16 cycles
 E2 =    -0.1083595895D+01 EUMP2 =    -0.29986624037283D+03
 CCSD(T)
 CCSD(T)= -0.29989073177D+03

 Unable to determine electronic state:  an orbital has unidentified symmetry.
 Alpha  occ. eigenvalues --  -20.22015 -20.22014 -20.17469 -20.17469  -1.08591
 Alpha  occ. eigenvalues --   -1.08504  -0.72462  -0.71914  -0.27099  -0.26899
 Alpha  occ. eigenvalues --   -0.24717  -0.24501  -0.22844  -0.20114  -0.06847
 Alpha  occ. eigenvalues --   -0.06524  -0.04061  -0.03726   0.41771
 Alpha virt. eigenvalues --    0.63571   1.08179   1.11060   1.12045   1.13274
 Alpha virt. eigenvalues --    1.13513   1.14695   1.16076   1.19593   1.20944
 Alpha virt. eigenvalues --    1.27419   1.28646   1.36328   1.36757   1.58293

  Beta  occ. eigenvalues --  -20.16283 -20.16282 -20.12356 -20.12356  -0.92480
  Beta  occ. eigenvalues --   -0.92350  -0.53567  -0.52709  -0.13873  -0.12110
  Beta  occ. eigenvalues --   -0.07857  -0.06947  -0.00054   0.00230   0.25249
  Beta virt. eigenvalues --    0.40220   0.55757   0.57020   0.79512   0.85894
  Beta virt. eigenvalues --    1.15187   1.18401   1.20129   1.20145   1.21797
  Beta virt. eigenvalues --    1.22141   1.24191   1.27657   1.30736   1.35636

 Mulliken charges and spin densities:
               1          2
     1  O   -0.370167   1.084445
     2  O   -0.629833   0.915555
     3  O   -0.629833   0.915555
     4  O   -0.370167   1.084445
 Sum of Mulliken charges =  -2.00000   4.00000

 Dipole moment (field-independent basis, Debye):
    X=             -0.0000    Y=              0.0000    Z=             -0.0000  Tot=              0.0000
 Quadrupole moment (field-independent basis, Debye-Ang):
   XX=            -25.2103   YY=            -24.0369   ZZ=            -84.2625
   XY=             -0.0000   XZ=              0.0000   YZ=             -0.0000

 Normal termination of Gaussian 16 at Sat Jan  7 05:06:58 2023.
