 Gaussian 16, Revision A.03,
 Gaussian 16:  ES64L-G16RevA.03 25-Dec-2016

 ------------------------------------------------
 #p CCSD(T,MaxCyc=300)/cc-pVTZ Guess=Read SCF=XQC
 ------------------------------------------------

 ---------
 O2_O2_189
 ---------
 Symbolic Z-matrix:
 Charge = -2 Multiplicity = 5

                         Standard orientation:
 ---------------------------------------------------------------------
 Center     Atomic      Atomic             Coordinates (Angstroms)
 Number     Number       Type             X           Y           Z
 ---------------------------------------------------------------------
      1          8           0        0.000000    0.000000    2.130562
      2          8           0        0.000000    0.000000    3.482942
      3          8           0        0.000000    0.000000   -3.482942
      4          8           0        0.000000    0.000000   -2.130562
 ---------------------------------------------------------------------

 SCF Done:  E(UHF) =  -298.770900452     A.U. after   12 cycles
 E2 =    -0.1180616327D+01 EUMP2 =    -0.29995151677842D+03
 CCSD(T)
 CCSD(T)= -0.29992762153D+03

 Unable to determine electronic state:  an orbital has unidentified symmetry.
 Alpha  occ. eigenvalues --  -20.24241 -20.24241 -20.20538 -20.20538  -1.11372
 Alpha  occ. eigenvalues --   -1.11369  -0.75235  -0.75191  -0.29985  -0.29974
 Alpha  occ. eigenvalues --   -0.27293  -0.27283  -0.25301  -0.24737  -0.09355
 Alpha  occ. eigenvalues --   -0.09339  -0.06838  -0.06819   0.42767
 Alpha virt. eigenvalues --    0.54784   1.04860   1.09884   1.10867   1.11099
 Alpha virt. eigenvalues --    1.12230   1.12425   1.14021   1.19508   1.19785
 Alpha virt. eigenvalues --    1.19995   1.20691   1.21218   1.33855   1.33868

  Beta  occ. eigenvalues --  -20.18422 -20.18422 -20.15487 -20.15486  -0.95175
  Beta  occ. eigenvalues --   -0.95167  -0.56205  -0.56118  -0.16105  -0.15957
  Beta  occ. eigenvalues --   -0.10358  -0.10013  -0.03167  -0.03154   0.24620
  Beta virt. eigenvalues --    0.34293   0.53573   0.53660   0.76923   0.79933
  Beta virt. eigenvalues --    1.13713   1.17096   1.18318   1.18423   1.18604
  Beta virt. eigenvalues --    1.20477   1.20583   1.23466   1.27513   1.27970

 Mulliken charges and spin densities:
               1          2
     1  O   -0.385215   1.111746
     2  O   -0.614785   0.888254
     3  O   -0.614785   0.888254
     4  O   -0.385215   1.111746
 Sum of Mulliken charges =  -2.00000   4.00000

 Dipole moment (field-independent basis, Debye):
    X=             -0.0000    Y=              0.0000    Z=             -0.0000  Tot=              0.0000
 Quadrupole moment (field-independent basis, Debye-Ang):
   XX=            -25.1474   YY=            -23.9850   ZZ=           -117.4184
   XY=             -0.0000   XZ=              0.0000   YZ=             -0.0000

 Normal termination of Gaussian 16 at Sat Jan  7 07:23:29 2023.
