 Gaussian 16, Revision A.03,
 Gaussian 16:  ES64L-G16RevA.03 25-Dec-2016

 ------------------------------------------------
 #p CCSD(T,MaxCyc=300)/cc-pVTZ Guess=Read SCF=XQC
 ------------------------------------------------

 --------
 O2_O2_47
 --------
 Symbolic Z-matrix:
 Charge = -2 Multiplicity = 5

                         Standard orientation:
 ---------------------------------------------------------------------
 Center     Atomic      Atomic             Coordinates (Angstroms)
 Number     Number       Type             X           Y           Z
 ---------------------------------------------------------------------
      1          8           0        0.000000    0.000000    1.125302
      2          8           0        0.000000    0.000000    2.477682
      3          8           0        0.000000    0.000000   -2.477682
      4          8           0        0.000000    0.000000   -1.125302
 ---------------------------------------------------------------------

 SCF Done:  E(UHF) =  -298.777698809     A.U. after   13 cycles
 E2 =    -0.1038719840D+01 EUMP2 =    -0.29981641864896D+03
 CCSD(T)
 CCSD(T)= -0.29985799177D+03

 Unable to determine electronic state:  an orbital has unidentified symmetry.
 Alpha  occ. eigenvalues --  -20.17384 -20.17380 -20.14376 -20.14376  -1.05980
 Alpha  occ. eigenvalues --   -1.05420  -0.70776  -0.68060  -0.24129  -0.23300
 Alpha  occ. eigenvalues --   -0.22742  -0.22063  -0.20989  -0.15059  -0.04390
 Alpha  occ. eigenvalues --   -0.02689  -0.01469  -0.00036   0.41934
 Alpha virt. eigenvalues --    0.69304   1.10203   1.13041   1.13743   1.14449
 Alpha virt. eigenvalues --    1.16944   1.18934   1.20308   1.22295   1.33045
 Alpha virt. eigenvalues --    1.36685   1.37383   1.38124   1.39329   1.83749

  Beta  occ. eigenvalues --  -20.11600 -20.11598 -20.08913 -20.08913  -0.89001
  Beta  occ. eigenvalues --   -0.88210  -0.52072  -0.47986  -0.12725  -0.05863
  Beta  occ. eigenvalues --   -0.05694  -0.04080   0.02103   0.03879   0.25509
  Beta virt. eigenvalues --    0.48605   0.57840   0.61217   0.84517   0.90467
  Beta virt. eigenvalues --    1.19746   1.20375   1.22576   1.23387   1.24045
  Beta virt. eigenvalues --    1.28066   1.28934   1.32965   1.36783   1.39936

 Mulliken charges and spin densities:
               1          2
     1  O   -0.367286   0.972355
     2  O   -0.632714   1.027645
     3  O   -0.632714   1.027645
     4  O   -0.367286   0.972355
 Sum of Mulliken charges =  -2.00000   4.00000

 Dipole moment (field-independent basis, Debye):
    X=             -0.0000    Y=              0.0000    Z=             -0.0000  Tot=              0.0000
 Quadrupole moment (field-independent basis, Debye-Ang):
   XX=            -25.2921   YY=            -24.0204   ZZ=            -71.1541
   XY=             -0.0000   XZ=              0.0000   YZ=             -0.0000

 Normal termination of Gaussian 16 at Sat Jan  7 03:58:08 2023.
