 Gaussian 16, Revision A.03,
 Gaussian 16:  ES64L-G16RevA.03 25-Dec-2016

 ------------------------------------------------
 #p CCSD(T,MaxCyc=300)/cc-pVTZ Guess=Read SCF=XQC
 ------------------------------------------------

 ---------
 O2_O2_198
 ---------
 Symbolic Z-matrix:
 Charge = -2 Multiplicity = 5

                         Standard orientation:
 ---------------------------------------------------------------------
 Center     Atomic      Atomic             Coordinates (Angstroms)
 Number     Number       Type             X           Y           Z
 ---------------------------------------------------------------------
      1          8           0        0.000000    0.000000    2.194275
      2          8           0        0.000000    0.000000    3.546655
      3          8           0        0.000000    0.000000   -3.546655
      4          8           0        0.000000    0.000000   -2.194275
 ---------------------------------------------------------------------

 SCF Done:  E(UHF) =  -298.769915431     A.U. after   16 cycles
 E2 =    -0.1192024870D+01 EUMP2 =    -0.29996194030109D+03
 CCSD(T)
 CCSD(T)= -0.29993063531D+03

 Unable to determine electronic state:  an orbital has unidentified symmetry.
 Alpha  occ. eigenvalues --  -20.24293 -20.24293 -20.20725 -20.20725  -1.11533
 Alpha  occ. eigenvalues --   -1.11531  -0.75417  -0.75382  -0.30125  -0.30118
 Alpha  occ. eigenvalues --   -0.27437  -0.27430  -0.25514  -0.25017  -0.09518
 Alpha  occ. eigenvalues --   -0.09507  -0.06998  -0.06984   0.42813
 Alpha virt. eigenvalues --    0.54150   1.05316   1.09405   1.10726   1.10891
 Alpha virt. eigenvalues --    1.12086   1.12224   1.14166   1.18452   1.19386
 Alpha virt. eigenvalues --    1.19732   1.20573   1.20947   1.33690   1.33695

  Beta  occ. eigenvalues --  -20.18460 -20.18459 -20.15656 -20.15656  -0.95291
  Beta  occ. eigenvalues --   -0.95285  -0.56347  -0.56273  -0.16232  -0.16120
  Beta  occ. eigenvalues --   -0.10492  -0.10174  -0.03307  -0.03298   0.24592
  Beta virt. eigenvalues --    0.34014   0.53413   0.53474   0.77045   0.79453
  Beta virt. eigenvalues --    1.14180   1.16873   1.18283   1.18294   1.18411
  Beta virt. eigenvalues --    1.20335   1.20409   1.22105   1.27395   1.27713

 Mulliken charges and spin densities:
               1          2
     1  O   -0.387835   1.109434
     2  O   -0.612165   0.890566
     3  O   -0.612165   0.890566
     4  O   -0.387835   1.109434
 Sum of Mulliken charges =  -2.00000   4.00000

 Dipole moment (field-independent basis, Debye):
    X=             -0.0000    Y=              0.0000    Z=              0.0000  Tot=              0.0000
 Quadrupole moment (field-independent basis, Debye-Ang):
   XX=            -25.1442   YY=            -23.9811   ZZ=           -120.9879
   XY=             -0.0000   XZ=              0.0000   YZ=             -0.0000

 Normal termination of Gaussian 16 at Sat Jan  7 07:37:33 2023.
