 Gaussian 16, Revision A.03,
 Gaussian 16:  ES64L-G16RevA.03 25-Dec-2016

 ------------------------------------------------
 #p CCSD(T,MaxCyc=300)/cc-pVTZ Guess=Read SCF=XQC
 ------------------------------------------------

 --------
 O2_O2_16
 --------
 Symbolic Z-matrix:
 Charge = -2 Multiplicity = 5

                         Standard orientation:
 ---------------------------------------------------------------------
 Center     Atomic      Atomic             Coordinates (Angstroms)
 Number     Number       Type             X           Y           Z
 ---------------------------------------------------------------------
      1          8           0        0.000000    0.000000    0.905844
      2          8           0        0.000000    0.000000    2.258224
      3          8           0        0.000000    0.000000   -2.258224
      4          8           0        0.000000    0.000000   -0.905844
 ---------------------------------------------------------------------

 SCF Done:  E(UHF) =  -298.755659102     A.U. after   13 cycles
 E2 =    -0.1000454454D+01 EUMP2 =    -0.29975611355586D+03
 CCSD(T)
 CCSD(T)= -0.29980764742D+03

 Unable to determine electronic state:  an orbital has unidentified symmetry.
 Alpha  occ. eigenvalues --  -20.13630 -20.13620 -20.11410 -20.11410  -1.04647
 Alpha  occ. eigenvalues --   -1.02717  -0.71645  -0.63812  -0.24445  -0.22549
 Alpha  occ. eigenvalues --   -0.20824  -0.20443  -0.17776  -0.08709  -0.03244
 Alpha  occ. eigenvalues --   -0.00063   0.01466   0.03550   0.40890
 Alpha virt. eigenvalues --    0.77429   1.09988   1.12290   1.16575   1.17432
 Alpha virt. eigenvalues --    1.18494   1.20897   1.23240   1.25101   1.38638
 Alpha virt. eigenvalues --    1.39373   1.42050   1.42444   1.51157   1.93056

  Beta  occ. eigenvalues --  -20.08005 -20.08000 -20.05667 -20.05667  -0.87386
  Beta  occ. eigenvalues --   -0.84658  -0.54103  -0.43126  -0.13454  -0.04411
  Beta  occ. eigenvalues --   -0.01646   0.01787   0.02052   0.07144   0.23902
  Beta virt. eigenvalues --    0.56069   0.59267   0.65127   0.87386   0.94303
  Beta virt. eigenvalues --    1.20726   1.22193   1.24976   1.25807   1.26025
  Beta virt. eigenvalues --    1.30896   1.32903   1.36397   1.40755   1.41486

 Mulliken charges and spin densities:
               1          2
     1  O   -0.347582   0.885689
     2  O   -0.652418   1.114311
     3  O   -0.652418   1.114311
     4  O   -0.347582   0.885689
 Sum of Mulliken charges =  -2.00000   4.00000

 Dipole moment (field-independent basis, Debye):
    X=             -0.0000    Y=             -0.0000    Z=              0.0000  Tot=              0.0000
 Quadrupole moment (field-independent basis, Debye-Ang):
   XX=            -25.2622   YY=            -23.9180   ZZ=            -65.1507
   XY=             -0.0000   XZ=              0.0000   YZ=             -0.0000

 Normal termination of Gaussian 16 at Sat Jan  7 03:15:41 2023.
