 Gaussian 16, Revision A.03,
 Gaussian 16:  ES64L-G16RevA.03 25-Dec-2016

 ------------------------------------------------
 #p CCSD(T,MaxCyc=300)/cc-pVTZ Guess=Read SCF=XQC
 ------------------------------------------------

 ---------
 O2_O2_166
 ---------
 Symbolic Z-matrix:
 Charge = -2 Multiplicity = 5

                         Standard orientation:
 ---------------------------------------------------------------------
 Center     Atomic      Atomic             Coordinates (Angstroms)
 Number     Number       Type             X           Y           Z
 ---------------------------------------------------------------------
      1          8           0        0.000000    0.000000    1.967738
      2          8           0        0.000000    0.000000    3.320118
      3          8           0        0.000000    0.000000   -3.320118
      4          8           0        0.000000    0.000000   -1.967738
 ---------------------------------------------------------------------

 SCF Done:  E(UHF) =  -298.774947982     A.U. after   16 cycles
 E2 =    -0.1149933209D+01 EUMP2 =    -0.29992488119170D+03
 CCSD(T)
 CCSD(T)= -0.29991946061D+03

 Unable to determine electronic state:  an orbital has unidentified symmetry.
 Alpha  occ. eigenvalues --  -20.24168 -20.24168 -20.20030 -20.20030  -1.10944
 Alpha  occ. eigenvalues --   -1.10936  -0.74739  -0.74660  -0.29623  -0.29600
 Alpha  occ. eigenvalues --   -0.26920  -0.26897  -0.24706  -0.23902  -0.08923
 Alpha  occ. eigenvalues --   -0.08888  -0.06416  -0.06373   0.42520
 Alpha virt. eigenvalues --    0.56743   1.03343   1.10828   1.11191   1.11715
 Alpha virt. eigenvalues --    1.12568   1.13011   1.13616   1.19740   1.20851
 Alpha virt. eigenvalues --    1.20904   1.22104   1.25030   1.34293   1.34342

  Beta  occ. eigenvalues --  -20.18402 -20.18402 -20.15028 -20.15028  -0.94896
  Beta  occ. eigenvalues --   -0.94882  -0.55842  -0.55701  -0.15793  -0.15509
  Beta  occ. eigenvalues --   -0.10013  -0.09581  -0.02801  -0.02773   0.24662
  Beta virt. eigenvalues --    0.35071   0.53986   0.54182   0.76551   0.81267
  Beta virt. eigenvalues --    1.12128   1.17550   1.18455   1.18756   1.19161
  Beta virt. eigenvalues --    1.20827   1.21071   1.27729   1.28540   1.28815

 Mulliken charges and spin densities:
               1          2
     1  O   -0.378133   1.118936
     2  O   -0.621867   0.881064
     3  O   -0.621867   0.881064
     4  O   -0.378133   1.118936
 Sum of Mulliken charges =  -2.00000   4.00000

 Dipole moment (field-independent basis, Debye):
    X=             -0.0000    Y=              0.0000    Z=             -0.0000  Tot=              0.0000
 Quadrupole moment (field-independent basis, Debye-Ang):
   XX=            -25.1576   YY=            -23.9971   ZZ=           -108.4912
   XY=             -0.0000   XZ=              0.0000   YZ=             -0.0000

 Normal termination of Gaussian 16 at Sat Jan  7 06:47:59 2023.
