 Gaussian 16, Revision A.03,
 Gaussian 16:  ES64L-G16RevA.03 25-Dec-2016

 ------------------------------------------------
 #p CCSD(T,MaxCyc=300)/cc-pVTZ Guess=Read SCF=XQC
 ------------------------------------------------

 --------
 O2_O2_60
 --------
 Symbolic Z-matrix:
 Charge = -2 Multiplicity = 5

                         Standard orientation:
 ---------------------------------------------------------------------
 Center     Atomic      Atomic             Coordinates (Angstroms)
 Number     Number       Type             X           Y           Z
 ---------------------------------------------------------------------
      1          8           0        0.000000    0.000000    1.217333
      2          8           0        0.000000    0.000000    2.569713
      3          8           0        0.000000    0.000000   -2.569713
      4          8           0        0.000000    0.000000   -1.217333
 ---------------------------------------------------------------------

 SCF Done:  E(UHF) =  -298.779442430     A.U. after   14 cycles
 E2 =    -0.1052214393D+01 EUMP2 =    -0.29983165682311D+03
 CCSD(T)
 CCSD(T)= -0.29986885551D+03

 Unable to determine electronic state:  an orbital has unidentified symmetry.
 Alpha  occ. eigenvalues --  -20.18648 -20.18645 -20.15318 -20.15318  -1.06636
 Alpha  occ. eigenvalues --   -1.06297  -0.71038  -0.69273  -0.24855  -0.24289
 Alpha  occ. eigenvalues --   -0.22716  -0.22526  -0.22012  -0.16750  -0.05012
 Alpha  occ. eigenvalues --   -0.03897  -0.02115  -0.01134   0.41984
 Alpha virt. eigenvalues --    0.67371   1.10356   1.13016   1.13308   1.13818
 Alpha virt. eigenvalues --    1.16354   1.18190   1.19821   1.21680   1.25070
 Alpha virt. eigenvalues --    1.34243   1.35072   1.37727   1.38582   1.78422

  Beta  occ. eigenvalues --  -20.12872 -20.12870 -20.09943 -20.09943  -0.89883
  Beta  occ. eigenvalues --   -0.89394  -0.52149  -0.49449  -0.12761  -0.07920
  Beta  occ. eigenvalues --   -0.06250  -0.04898   0.01721   0.02846   0.25676
  Beta virt. eigenvalues --    0.46104   0.57303   0.59936   0.83281   0.89174
  Beta virt. eigenvalues --    1.19186   1.20016   1.21730   1.22803   1.23423
  Beta virt. eigenvalues --    1.27037   1.28182   1.30260   1.32068   1.39474

 Mulliken charges and spin densities:
               1          2
     1  O   -0.372896   1.001329
     2  O   -0.627104   0.998671
     3  O   -0.627104   0.998671
     4  O   -0.372896   1.001329
 Sum of Mulliken charges =  -2.00000   4.00000

 Dipole moment (field-independent basis, Debye):
    X=             -0.0000    Y=             -0.0000    Z=              0.0000  Tot=              0.0000
 Quadrupole moment (field-independent basis, Debye-Ang):
   XX=            -25.2705   YY=            -24.0291   ZZ=            -74.1020
   XY=             -0.0000   XZ=              0.0000   YZ=             -0.0000

 Normal termination of Gaussian 16 at Sat Jan  7 04:16:08 2023.
