 Gaussian 16, Revision A.03,
 Gaussian 16:  ES64L-G16RevA.03 25-Dec-2016

 ------------------------------------------------
 #p CCSD(T,MaxCyc=300)/cc-pVTZ Guess=Read SCF=XQC
 ------------------------------------------------

 --------
 O2_O2_79
 --------
 Symbolic Z-matrix:
 Charge = -2 Multiplicity = 5

                         Standard orientation:
 ---------------------------------------------------------------------
 Center     Atomic      Atomic             Coordinates (Angstroms)
 Number     Number       Type             X           Y           Z
 ---------------------------------------------------------------------
      1          8           0        0.000000    0.000000    1.351840
      2          8           0        0.000000    0.000000    2.704220
      3          8           0        0.000000    0.000000   -2.704220
      4          8           0        0.000000    0.000000   -1.351840
 ---------------------------------------------------------------------

 SCF Done:  E(UHF) =  -298.781050576     A.U. after   14 cycles
 E2 =    -0.1069442253D+01 EUMP2 =    -0.29985049282923D+03
 CCSD(T)
 CCSD(T)= -0.29988111519D+03

 Unable to determine electronic state:  an orbital has unidentified symmetry.
 Alpha  occ. eigenvalues --  -20.20386 -20.20384 -20.16534 -20.16534  -1.07629
 Alpha  occ. eigenvalues --   -1.07464  -0.71695  -0.70738  -0.25970  -0.25642
 Alpha  occ. eigenvalues --   -0.23728  -0.23346  -0.22552  -0.18663  -0.05977
 Alpha  occ. eigenvalues --   -0.05379  -0.03106  -0.02540   0.41900
 Alpha virt. eigenvalues --    0.65245   1.10659   1.12427   1.13435   1.13476
 Alpha virt. eigenvalues --    1.15078   1.15499   1.17107   1.19536   1.21146
 Alpha virt. eigenvalues --    1.30635   1.31664   1.37047   1.37648   1.68943

  Beta  occ. eigenvalues --  -20.14641 -20.14640 -20.11283 -20.11283  -0.91225
  Beta  occ. eigenvalues --   -0.90978  -0.52736  -0.51250  -0.13183  -0.10296
  Beta  occ. eigenvalues --   -0.07077  -0.05996   0.00918   0.01487   0.25571
  Beta virt. eigenvalues --    0.42899   0.56501   0.58310   0.81371   0.87431
  Beta virt. eigenvalues --    1.18648   1.18765   1.20806   1.22395   1.22559
  Beta virt. eigenvalues --    1.22693   1.25571   1.27715   1.31193   1.38712

 Mulliken charges and spin densities:
               1          2
     1  O   -0.376007   1.042003
     2  O   -0.623993   0.957997
     3  O   -0.623993   0.957997
     4  O   -0.376007   1.042003
 Sum of Mulliken charges =  -2.00000   4.00000

 Dipole moment (field-independent basis, Debye):
    X=             -0.0000    Y=              0.0000    Z=              0.0000  Tot=              0.0000
 Quadrupole moment (field-independent basis, Debye-Ang):
   XX=            -25.2355   YY=            -24.0345   ZZ=            -78.8997
   XY=             -0.0000   XZ=              0.0000   YZ=             -0.0000

 Normal termination of Gaussian 16 at Sat Jan  7 04:42:21 2023.
