 Gaussian 16, Revision A.03,
 Gaussian 16:  ES64L-G16RevA.03 25-Dec-2016

 ------------------------------------------------
 #p CCSD(T,MaxCyc=300)/cc-pVTZ Guess=Read SCF=XQC
 ------------------------------------------------

 ---------
 O2_O2_141
 ---------
 Symbolic Z-matrix:
 Charge = -2 Multiplicity = 5

                         Standard orientation:
 ---------------------------------------------------------------------
 Center     Atomic      Atomic             Coordinates (Angstroms)
 Number     Number       Type             X           Y           Z
 ---------------------------------------------------------------------
      1          8           0        0.000000    0.000000    1.790756
      2          8           0        0.000000    0.000000    3.143136
      3          8           0        0.000000    0.000000   -3.143136
      4          8           0        0.000000    0.000000   -1.790756
 ---------------------------------------------------------------------

 SCF Done:  E(UHF) =  -298.780457181     A.U. after   16 cycles
 E2 =    -0.1118565331D+01 EUMP2 =    -0.29989902251173D+03
 CCSD(T)
 CCSD(T)= -0.29990994902D+03

 Unable to determine electronic state:  an orbital has unidentified symmetry.
 Alpha  occ. eigenvalues --  -20.24016 -20.24015 -20.19308 -20.19307  -1.10363
 Alpha  occ. eigenvalues --   -1.10345  -0.74084  -0.73930  -0.29110  -0.29057
 Alpha  occ. eigenvalues --   -0.26413  -0.26361  -0.23990  -0.22767  -0.08348
 Alpha  occ. eigenvalues --   -0.08270  -0.05836  -0.05743   0.42094
 Alpha virt. eigenvalues --    0.59317   1.02230   1.11340   1.11476   1.12607
 Alpha virt. eigenvalues --    1.12883   1.13384   1.13856   1.19831   1.20963
 Alpha virt. eigenvalues --    1.22303   1.23609   1.34040   1.34981   1.35016

  Beta  occ. eigenvalues --  -20.18302 -20.18302 -20.14351 -20.14351  -0.94469
  Beta  occ. eigenvalues --   -0.94440  -0.55324  -0.55070  -0.15364  -0.14815
  Beta  occ. eigenvalues --   -0.09517  -0.08950  -0.02250  -0.02191   0.24734
  Beta virt. eigenvalues --    0.36189   0.54497   0.54927   0.76597   0.82788
  Beta virt. eigenvalues --    1.10873   1.17919   1.18794   1.19111   1.19954
  Beta virt. eigenvalues --    1.21240   1.21781   1.27804   1.30284   1.30680

 Mulliken charges and spin densities:
               1          2
     1  O   -0.369619   1.126616
     2  O   -0.630381   0.873384
     3  O   -0.630381   0.873384
     4  O   -0.369619   1.126616
 Sum of Mulliken charges =  -2.00000   4.00000

 Dipole moment (field-independent basis, Debye):
    X=             -0.0000    Y=              0.0000    Z=             -0.0000  Tot=              0.0000
 Quadrupole moment (field-independent basis, Debye-Ang):
   XX=            -25.1716   YY=            -24.0114   ZZ=            -99.1962
   XY=             -0.0000   XZ=              0.0000   YZ=             -0.0000

 Normal termination of Gaussian 16 at Sat Jan  7 06:11:06 2023.
