 Gaussian 16, Revision A.03,
 Gaussian 16:  ES64L-G16RevA.03 25-Dec-2016

 ------------------------------------------------
 #p CCSD(T,MaxCyc=300)/cc-pVTZ Guess=Read SCF=XQC
 ------------------------------------------------

 --------
 O2_O2_90
 --------
 Symbolic Z-matrix:
 Charge = -2 Multiplicity = 5

                         Standard orientation:
 ---------------------------------------------------------------------
 Center     Atomic      Atomic             Coordinates (Angstroms)
 Number     Number       Type             X           Y           Z
 ---------------------------------------------------------------------
      1          8           0        0.000000    0.000000    1.429712
      2          8           0        0.000000    0.000000    2.782092
      3          8           0        0.000000    0.000000   -2.782092
      4          8           0        0.000000    0.000000   -1.429712
 ---------------------------------------------------------------------

 SCF Done:  E(UHF) =  -298.782048030     A.U. after   14 cycles
 E2 =    -0.1078326368D+01 EUMP2 =    -0.29986037439842D+03
 CCSD(T)
 CCSD(T)= -0.29988715868D+03

 Unable to determine electronic state:  an orbital has unidentified symmetry.
 Alpha  occ. eigenvalues --  -20.21389 -20.21387 -20.17137 -20.17137  -1.08218
 Alpha  occ. eigenvalues --   -1.08107  -0.72158  -0.71479  -0.26652  -0.26411
 Alpha  occ. eigenvalues --   -0.24336  -0.24066  -0.22706  -0.19581  -0.06527
 Alpha  occ. eigenvalues --   -0.06115  -0.03693  -0.03282   0.41816
 Alpha virt. eigenvalues --    0.64205   1.10548   1.10895   1.12191   1.13334
 Alpha virt. eigenvalues --    1.13508   1.15008   1.16477   1.19543   1.20995
 Alpha virt. eigenvalues --    1.28624   1.29776   1.36613   1.37103   1.62559

  Beta  occ. eigenvalues --  -20.15655 -20.15654 -20.11967 -20.11967  -0.92002
  Beta  occ. eigenvalues --   -0.91835  -0.53227  -0.52167  -0.13584  -0.11448
  Beta  occ. eigenvalues --   -0.07555  -0.06586   0.00350   0.00726   0.25384
  Beta virt. eigenvalues --    0.41222   0.56035   0.57488   0.80227   0.86479
  Beta virt. eigenvalues --    1.16765   1.18472   1.20378   1.20678   1.22085
  Beta virt. eigenvalues --    1.22246   1.24724   1.27652   1.30876   1.36879

 Mulliken charges and spin densities:
               1          2
     1  O   -0.373568   1.067360
     2  O   -0.626432   0.932640
     3  O   -0.626432   0.932640
     4  O   -0.373568   1.067360
 Sum of Mulliken charges =  -2.00000   4.00000

 Dipole moment (field-independent basis, Debye):
    X=             -0.0000    Y=              0.0000    Z=             -0.0000  Tot=              0.0000
 Quadrupole moment (field-independent basis, Debye-Ang):
   XX=            -25.2190   YY=            -24.0368   ZZ=            -82.0627
   XY=             -0.0000   XZ=              0.0000   YZ=             -0.0000

 Normal termination of Gaussian 16 at Sat Jan  7 04:57:24 2023.
