 Gaussian 16, Revision A.03,
 Gaussian 16:  ES64L-G16RevA.03 25-Dec-2016

 ------------------------------------------------
 #p CCSD(T,MaxCyc=300)/cc-pVTZ Guess=Read SCF=XQC
 ------------------------------------------------

 ---------
 O2_O2_295
 ---------
 Symbolic Z-matrix:
 Charge = -2 Multiplicity = 5

                         Standard orientation:
 ---------------------------------------------------------------------
 Center     Atomic      Atomic             Coordinates (Angstroms)
 Number     Number       Type             X           Y           Z
 ---------------------------------------------------------------------
      1          8           0        0.000000    0.000000    2.880967
      2          8           0        0.000000    0.000000    4.233347
      3          8           0        0.000000    0.000000   -4.233347
      4          8           0        0.000000    0.000000   -2.880967
 ---------------------------------------------------------------------

 SCF Done:  E(UHF) =  -298.772222880     A.U. after   14 cycles
 E2 =    -0.1286619496D+01 EUMP2 =    -0.30005884237623D+03
 CCSD(T)
 CCSD(T)= -0.29995589559D+03

 Unable to determine electronic state:  an orbital has unidentified symmetry.
 Alpha  occ. eigenvalues --  -20.25415 -20.25415 -20.22658 -20.22658  -1.13167
 Alpha  occ. eigenvalues --   -1.13166  -0.77163  -0.77157  -0.31669  -0.31669
 Alpha  occ. eigenvalues --   -0.29017  -0.29017  -0.27320  -0.27126  -0.11225
 Alpha  occ. eigenvalues --   -0.11224  -0.08671  -0.08670   0.42399
 Alpha virt. eigenvalues --    0.50243   1.05561   1.05683   1.09132   1.09137
 Alpha virt. eigenvalues --    1.10489   1.10493   1.13619   1.13890   1.17800
 Alpha virt. eigenvalues --    1.17816   1.18993   1.19010   1.32053   1.32055

  Beta  occ. eigenvalues --  -20.19589 -20.19589 -20.17473 -20.17473  -0.96793
  Beta  occ. eigenvalues --   -0.96791  -0.57947  -0.57923  -0.17811  -0.17807
  Beta  occ. eigenvalues --   -0.12032  -0.11876  -0.04843  -0.04843   0.23961
  Beta virt. eigenvalues --    0.31416   0.51716   0.51717   0.76359   0.76417
  Beta virt. eigenvalues --    1.14280   1.14353   1.16690   1.16692   1.17317
  Beta virt. eigenvalues --    1.17364   1.18776   1.18777   1.25828   1.25831

 Mulliken charges and spin densities:
               1          2
     1  O   -0.412484   1.090247
     2  O   -0.587516   0.909753
     3  O   -0.587516   0.909753
     4  O   -0.412484   1.090247
 Sum of Mulliken charges =  -2.00000   4.00000

 Dipole moment (field-independent basis, Debye):
    X=             -0.0000    Y=             -0.0000    Z=             -0.0000  Tot=              0.0000
 Quadrupole moment (field-independent basis, Debye-Ang):
   XX=            -25.1284   YY=            -23.9644   ZZ=           -163.2783
   XY=             -0.0000   XZ=              0.0000   YZ=             -0.0000

 Normal termination of Gaussian 16 at Sat Jan  7 10:08:21 2023.
