 Gaussian 16, Revision A.03,
 Gaussian 16:  ES64L-G16RevA.03 25-Dec-2016

 ------------------------------------------------
 #p CCSD(T,MaxCyc=300)/cc-pVTZ Guess=Read SCF=XQC
 ------------------------------------------------

 ---------
 O2_O2_159
 ---------
 Symbolic Z-matrix:
 Charge = -2 Multiplicity = 5

                         Standard orientation:
 ---------------------------------------------------------------------
 Center     Atomic      Atomic             Coordinates (Angstroms)
 Number     Number       Type             X           Y           Z
 ---------------------------------------------------------------------
      1          8           0        0.000000    0.000000    1.918183
      2          8           0        0.000000    0.000000    3.270563
      3          8           0        0.000000    0.000000   -3.270563
      4          8           0        0.000000    0.000000   -1.918183
 ---------------------------------------------------------------------

 SCF Done:  E(UHF) =  -298.776506151     A.U. after   16 cycles
 E2 =    -0.1140614868D+01 EUMP2 =    -0.29991712101959D+03
 CCSD(T)
 CCSD(T)= -0.29991686336D+03

 Unable to determine electronic state:  an orbital has unidentified symmetry.
 Alpha  occ. eigenvalues --  -20.24148 -20.24148 -20.19853 -20.19853  -1.10800
 Alpha  occ. eigenvalues --   -1.10790  -0.74572  -0.74477  -0.29502  -0.29472
 Alpha  occ. eigenvalues --   -0.26796  -0.26768  -0.24511  -0.23610  -0.08778
 Alpha  occ. eigenvalues --   -0.08735  -0.06273  -0.06220   0.42410
 Alpha virt. eigenvalues --    0.57432   1.02891   1.11022   1.11277   1.11937
 Alpha virt. eigenvalues --    1.12662   1.13220   1.13518   1.19783   1.20938
 Alpha virt. eigenvalues --    1.21188   1.22454   1.27220   1.34439   1.34503

  Beta  occ. eigenvalues --  -20.18399 -20.18399 -20.14867 -20.14867  -0.94802
  Beta  occ. eigenvalues --   -0.94785  -0.55719  -0.55554  -0.15692  -0.15348
  Beta  occ. eigenvalues --   -0.09897  -0.09432  -0.02674  -0.02640   0.24673
  Beta virt. eigenvalues --    0.35343   0.54118   0.54366   0.76479   0.81688
  Beta virt. eigenvalues --    1.11650   1.17662   1.18527   1.18852   1.19359
  Beta virt. eigenvalues --    1.20935   1.21243   1.27766   1.29152   1.30585

 Mulliken charges and spin densities:
               1          2
     1  O   -0.375822   1.121399
     2  O   -0.624178   0.878601
     3  O   -0.624178   0.878601
     4  O   -0.375822   1.121399
 Sum of Mulliken charges =  -2.00000   4.00000

 Dipole moment (field-independent basis, Debye):
    X=             -0.0000    Y=              0.0000    Z=             -0.0000  Tot=              0.0000
 Quadrupole moment (field-independent basis, Debye-Ang):
   XX=            -25.1612   YY=            -24.0011   ZZ=           -105.8351
   XY=             -0.0000   XZ=              0.0000   YZ=             -0.0000

 Normal termination of Gaussian 16 at Sat Jan  7 06:37:39 2023.
