 Gaussian 16, Revision A.03,
 Gaussian 16:  ES64L-G16RevA.03 25-Dec-2016

 ------------------------------------------------
 #p CCSD(T,MaxCyc=300)/cc-pVTZ Guess=Read SCF=XQC
 ------------------------------------------------

 --------
 O2_O2_11
 --------
 Symbolic Z-matrix:
 Charge = -2 Multiplicity = 5

                         Standard orientation:
 ---------------------------------------------------------------------
 Center     Atomic      Atomic             Coordinates (Angstroms)
 Number     Number       Type             X           Y           Z
 ---------------------------------------------------------------------
      1          8           0        0.000000    0.000000    0.870447
      2          8           0        0.000000    0.000000    2.222828
      3          8           0        0.000000    0.000000   -2.222828
      4          8           0        0.000000    0.000000   -0.870447
 ---------------------------------------------------------------------

 SCF Done:  E(UHF) =  -298.746010236     A.U. after   14 cycles
 E2 =    -0.9934985500D+00 EUMP2 =    -0.29973950878640D+03
 CCSD(T)
 CCSD(T)= -0.29979256384D+03

 Unable to determine electronic state:  an orbital has unidentified symmetry.
 Alpha  occ. eigenvalues --  -20.12922 -20.12910 -20.10762 -20.10762  -1.04546
 Alpha  occ. eigenvalues --   -1.02159  -0.72178  -0.62869  -0.24932  -0.22361
 Alpha  occ. eigenvalues --   -0.20755  -0.19885  -0.17111  -0.07238  -0.03163
 Alpha  occ. eigenvalues --    0.00130   0.02388   0.04330   0.40480
 Alpha virt. eigenvalues --    0.79542   1.10077   1.12154   1.17019   1.17966
 Alpha virt. eigenvalues --    1.18787   1.21267   1.24046   1.25809   1.38598
 Alpha virt. eigenvalues --    1.39342   1.42820   1.43165   1.52952   1.93430

  Beta  occ. eigenvalues --  -20.07355 -20.07348 -20.04965 -20.04965  -0.87351
  Beta  occ. eigenvalues --   -0.83943  -0.54924  -0.42089  -0.13640  -0.04244
  Beta  occ. eigenvalues --   -0.01146   0.01402   0.04014   0.07833   0.23401
  Beta virt. eigenvalues --    0.57507   0.59540   0.65902   0.87785   0.95101
  Beta virt. eigenvalues --    1.20674   1.22896   1.25327   1.26158   1.26491
  Beta virt. eigenvalues --    1.31439   1.33751   1.37125   1.40824   1.41474

 Mulliken charges and spin densities:
               1          2
     1  O   -0.342486   0.869280
     2  O   -0.657514   1.130720
     3  O   -0.657514   1.130720
     4  O   -0.342486   0.869280
 Sum of Mulliken charges =  -2.00000   4.00000

 Dipole moment (field-independent basis, Debye):
    X=             -0.0000    Y=              0.0000    Z=              0.0000  Tot=              0.0000
 Quadrupole moment (field-independent basis, Debye-Ang):
   XX=            -25.2364   YY=            -23.8806   ZZ=            -64.3891
   XY=             -0.0000   XZ=              0.0000   YZ=             -0.0000

 Normal termination of Gaussian 16 at Sat Jan  7 03:09:09 2023.
