 Gaussian 16, Revision A.03,
 Gaussian 16:  ES64L-G16RevA.03 25-Dec-2016

 ------------------------------------------------
 #p CCSD(T,MaxCyc=300)/cc-pVTZ Guess=Read SCF=XQC
 ------------------------------------------------

 --------
 O2_O2_40
 --------
 Symbolic Z-matrix:
 Charge = -2 Multiplicity = 5

                         Standard orientation:
 ---------------------------------------------------------------------
 Center     Atomic      Atomic             Coordinates (Angstroms)
 Number     Number       Type             X           Y           Z
 ---------------------------------------------------------------------
      1          8           0        0.000000    0.000000    1.075747
      2          8           0        0.000000    0.000000    2.428127
      3          8           0        0.000000    0.000000   -2.428127
      4          8           0        0.000000    0.000000   -1.075747
 ---------------------------------------------------------------------

 SCF Done:  E(UHF) =  -298.775891425     A.U. after   14 cycles
 E2 =    -0.1030844995D+01 EUMP2 =    -0.29980673642035D+03
 CCSD(T)
 CCSD(T)= -0.29985061172D+03

 Unable to determine electronic state:  an orbital has unidentified symmetry.
 Alpha  occ. eigenvalues --  -20.16643 -20.16638 -20.13817 -20.13816  -1.05637
 Alpha  occ. eigenvalues --   -1.04901  -0.70737  -0.67299  -0.23747  -0.22960
 Alpha  occ. eigenvalues --   -0.22729  -0.21729  -0.20377  -0.13960  -0.04076
 Alpha  occ. eigenvalues --   -0.01939  -0.01132   0.00628   0.41845
 Alpha virt. eigenvalues --    0.70604   1.10124   1.12866   1.14282   1.14962
 Alpha virt. eigenvalues --    1.17269   1.19345   1.20707   1.22734   1.36945
 Alpha virt. eigenvalues --    1.37963   1.38309   1.38593   1.40227   1.86286

  Beta  occ. eigenvalues --  -20.10869 -20.10866 -20.08301 -20.08301  -0.88548
  Beta  occ. eigenvalues --   -0.87516  -0.52196  -0.47086  -0.12797  -0.05396
  Beta  occ. eigenvalues --   -0.04531  -0.03605   0.02226   0.04497   0.25318
  Beta virt. eigenvalues --    0.50088   0.58135   0.61981   0.85174   0.91217
  Beta virt. eigenvalues --    1.20125   1.20505   1.23100   1.23846   1.24399
  Beta virt. eigenvalues --    1.28644   1.29549   1.33570   1.39763   1.40163

 Mulliken charges and spin densities:
               1          2
     1  O   -0.363567   0.955415
     2  O   -0.636433   1.044585
     3  O   -0.636433   1.044585
     4  O   -0.363567   0.955415
 Sum of Mulliken charges =  -2.00000   4.00000

 Dipole moment (field-independent basis, Debye):
    X=             -0.0000    Y=              0.0000    Z=              0.0000  Tot=              0.0000
 Quadrupole moment (field-independent basis, Debye-Ang):
   XX=            -25.2989   YY=            -24.0106   ZZ=            -69.6603
   XY=             -0.0000   XZ=              0.0000   YZ=             -0.0000

 Normal termination of Gaussian 16 at Sat Jan  7 03:48:25 2023.
