 Gaussian 16, Revision A.03,
 Gaussian 16:  ES64L-G16RevA.03 25-Dec-2016

 ------------------------------------------------
 #p CCSD(T,MaxCyc=300)/cc-pVTZ Guess=Read SCF=XQC
 ------------------------------------------------

 ---------
 O2_O2_253
 ---------
 Symbolic Z-matrix:
 Charge = -2 Multiplicity = 5

                         Standard orientation:
 ---------------------------------------------------------------------
 Center     Atomic      Atomic             Coordinates (Angstroms)
 Number     Number       Type             X           Y           Z
 ---------------------------------------------------------------------
      1          8           0        0.000000    0.000000    2.583636
      2          8           0        0.000000    0.000000    3.936016
      3          8           0        0.000000    0.000000   -3.936016
      4          8           0        0.000000    0.000000   -2.583636
 ---------------------------------------------------------------------

 SCF Done:  E(UHF) =  -298.769620164     A.U. after    9 cycles
 E2 =    -0.1250585733D+01 EUMP2 =    -0.30002020589670D+03
 CCSD(T)
 CCSD(T)= -0.29994646315D+03

 Unable to determine electronic state:  an orbital has unidentified symmetry.
 Alpha  occ. eigenvalues --  -20.24877 -20.24877 -20.21855 -20.21855  -1.12498
 Alpha  occ. eigenvalues --   -1.12497  -0.76462  -0.76450  -0.31021  -0.31020
 Alpha  occ. eigenvalues --   -0.28355  -0.28354  -0.26631  -0.26362  -0.10518
 Alpha  occ. eigenvalues --   -0.10516  -0.07979  -0.07977   0.42682
 Alpha virt. eigenvalues --    0.51490   1.06065   1.06752   1.09796   1.09814
 Alpha virt. eigenvalues --    1.11153   1.11168   1.14198   1.14884   1.18478
 Alpha virt. eigenvalues --    1.18522   1.19671   1.19718   1.32712   1.32717

  Beta  occ. eigenvalues --  -20.19026 -20.19026 -20.16710 -20.16710  -0.96133
  Beta  occ. eigenvalues --   -0.96130  -0.57269  -0.57235  -0.17126  -0.17110
  Beta  occ. eigenvalues --   -0.11377  -0.11170  -0.04202  -0.04201   0.24271
  Beta virt. eigenvalues --    0.32449   0.52419   0.52425   0.76950   0.77329
  Beta virt. eigenvalues --    1.14816   1.15260   1.17358   1.17370   1.17945
  Beta virt. eigenvalues --    1.18334   1.19426   1.19432   1.26502   1.26527

 Mulliken charges and spin densities:
               1          2
     1  O   -0.402752   1.097914
     2  O   -0.597248   0.902086
     3  O   -0.597248   0.902086
     4  O   -0.402752   1.097914
 Sum of Mulliken charges =  -2.00000   4.00000

 Dipole moment (field-independent basis, Debye):
    X=             -0.0000    Y=              0.0000    Z=             -0.0000  Tot=              0.0000
 Quadrupole moment (field-independent basis, Debye-Ang):
   XX=            -25.1323   YY=            -23.9675   ZZ=           -143.9839
   XY=             -0.0000   XZ=              0.0000   YZ=             -0.0000

 Normal termination of Gaussian 16 at Sat Jan  7 09:02:22 2023.
