 Gaussian 16, Revision A.03,
 Gaussian 16:  ES64L-G16RevA.03 25-Dec-2016

 ------------------------------------------------
 #p CCSD(T,MaxCyc=300)/cc-pVTZ Guess=Read SCF=XQC
 ------------------------------------------------

 ---------
 O2_O2_120
 ---------
 Symbolic Z-matrix:
 Charge = -2 Multiplicity = 5

                         Standard orientation:
 ---------------------------------------------------------------------
 Center     Atomic      Atomic             Coordinates (Angstroms)
 Number     Number       Type             X           Y           Z
 ---------------------------------------------------------------------
      1          8           0        0.000000    0.000000    1.642091
      2          8           0        0.000000    0.000000    2.994471
      3          8           0        0.000000    0.000000   -2.994471
      4          8           0        0.000000    0.000000   -1.642091
 ---------------------------------------------------------------------

 SCF Done:  E(UHF) =  -298.783175501     A.U. after   16 cycles
 E2 =    -0.1099239831D+01 EUMP2 =    -0.29988241533193D+03
 CCSD(T)
 CCSD(T)= -0.29990132121D+03

 Unable to determine electronic state:  an orbital has unidentified symmetry.
 Alpha  occ. eigenvalues --  -20.23492 -20.23491 -20.18470 -20.18470  -1.09661
 Alpha  occ. eigenvalues --   -1.09623  -0.73383  -0.73105  -0.28381  -0.28278
 Alpha  occ. eigenvalues --   -0.25766  -0.25663  -0.23398  -0.21620  -0.07705
 Alpha  occ. eigenvalues --   -0.07556  -0.05124  -0.04951   0.41803
 Alpha virt. eigenvalues --    0.61469   1.03314   1.11415   1.11689   1.13091
 Alpha virt. eigenvalues --    1.13441   1.13580   1.14812   1.19781   1.20923
 Alpha virt. eigenvalues --    1.24224   1.25563   1.35443   1.35714   1.44689

  Beta  occ. eigenvalues --  -20.17779 -20.17778 -20.13497 -20.13497  -0.93767
  Beta  occ. eigenvalues --   -0.93709  -0.54628  -0.54187  -0.14776  -0.13829
  Beta  occ. eigenvalues --   -0.08835  -0.08113  -0.01418  -0.01301   0.24910
  Beta virt. eigenvalues --    0.37636   0.55031   0.55788   0.77538   0.84155
  Beta virt. eigenvalues --    1.11566   1.18189   1.19290   1.19488   1.20818
  Beta virt. eigenvalues --    1.21676   1.22692   1.27758   1.30609   1.32283

 Mulliken charges and spin densities:
               1          2
     1  O   -0.363976   1.122560
     2  O   -0.636024   0.877440
     3  O   -0.636024   0.877440
     4  O   -0.363976   1.122560
 Sum of Mulliken charges =  -2.00000   4.00000

 Dipole moment (field-independent basis, Debye):
    X=             -0.0000    Y=              0.0000    Z=              0.0000  Tot=              0.0000
 Quadrupole moment (field-independent basis, Debye-Ang):
   XX=            -25.1869   YY=            -24.0242   ZZ=            -91.9120
   XY=             -0.0000   XZ=              0.0000   YZ=             -0.0000

 Normal termination of Gaussian 16 at Sat Jan  7 05:39:43 2023.
