 Gaussian 16, Revision A.03,
 Gaussian 16:  ES64L-G16RevA.03 25-Dec-2016

 ------------------------------------------------
 #p CCSD(T,MaxCyc=300)/cc-pVTZ Guess=Read SCF=XQC
 ------------------------------------------------

 --------
 O2_O2_66
 --------
 Symbolic Z-matrix:
 Charge = -2 Multiplicity = 5

                         Standard orientation:
 ---------------------------------------------------------------------
 Center     Atomic      Atomic             Coordinates (Angstroms)
 Number     Number       Type             X           Y           Z
 ---------------------------------------------------------------------
      1          8           0        0.000000    0.000000    1.259809
      2          8           0        0.000000    0.000000    2.612189
      3          8           0        0.000000    0.000000   -2.612189
      4          8           0        0.000000    0.000000   -1.259809
 ---------------------------------------------------------------------

 SCF Done:  E(UHF) =  -298.779963080     A.U. after   14 cycles
 E2 =    -0.1057956603D+01 EUMP2 =    -0.29983791968290D+03
 CCSD(T)
 CCSD(T)= -0.29987306171D+03

 Unable to determine electronic state:  an orbital has unidentified symmetry.
 Alpha  occ. eigenvalues --  -20.19203 -20.19200 -20.15722 -20.15722  -1.06945
 Alpha  occ. eigenvalues --   -1.06676  -0.71218  -0.69767  -0.25199  -0.24724
 Alpha  occ. eigenvalues --   -0.23028  -0.22496  -0.22449  -0.17412  -0.05312
 Alpha  occ. eigenvalues --   -0.04395  -0.02423  -0.01598   0.41972
 Alpha virt. eigenvalues --    0.66632   1.10438   1.12785   1.13390   1.13646
 Alpha virt. eigenvalues --    1.16083   1.17849   1.19684   1.21469   1.21633
 Alpha virt. eigenvalues --    1.33100   1.33990   1.37524   1.38286   1.75661

  Beta  occ. eigenvalues --  -20.13436 -20.13434 -20.10385 -20.10384  -0.90302
  Beta  occ. eigenvalues --   -0.89909  -0.52286  -0.50053  -0.12850  -0.08735
  Beta  occ. eigenvalues --   -0.06510  -0.05256   0.01494   0.02404   0.25681
  Beta virt. eigenvalues --    0.45042   0.57053   0.59394   0.82692   0.88608
  Beta virt. eigenvalues --    1.18982   1.19767   1.21403   1.22633   1.23145
  Beta virt. eigenvalues --    1.26572   1.27493   1.27969   1.31741   1.39244

 Mulliken charges and spin densities:
               1          2
     1  O   -0.374662   1.014114
     2  O   -0.625338   0.985886
     3  O   -0.625338   0.985886
     4  O   -0.374662   1.014114
 Sum of Mulliken charges =  -2.00000   4.00000

 Dipole moment (field-independent basis, Debye):
    X=             -0.0000    Y=              0.0000    Z=              0.0000  Tot=              0.0000
 Quadrupole moment (field-independent basis, Debye-Ang):
   XX=            -25.2591   YY=            -24.0311   ZZ=            -75.5452
   XY=             -0.0000   XZ=              0.0000   YZ=             -0.0000

 Normal termination of Gaussian 16 at Sat Jan  7 04:24:27 2023.
