 Gaussian 16, Revision A.03,
 Gaussian 16:  ES64L-G16RevA.03 25-Dec-2016

 ------------------------------------------------
 #p CCSD(T,MaxCyc=300)/cc-pVTZ Guess=Read SCF=XQC
 ------------------------------------------------

 ---------
 O2_O2_241
 ---------
 Symbolic Z-matrix:
 Charge = -2 Multiplicity = 5

                         Standard orientation:
 ---------------------------------------------------------------------
 Center     Atomic      Atomic             Coordinates (Angstroms)
 Number     Number       Type             X           Y           Z
 ---------------------------------------------------------------------
      1          8           0        0.000000    0.000000    2.498685
      2          8           0        0.000000    0.000000    3.851065
      3          8           0        0.000000    0.000000   -3.851065
      4          8           0        0.000000    0.000000   -2.498685
 ---------------------------------------------------------------------

 SCF Done:  E(UHF) =  -298.769113373     A.U. after   10 cycles
 E2 =    -0.1239265405D+01 EUMP2 =    -0.30000837877820D+03
 CCSD(T)
 CCSD(T)= -0.29994338532D+03

 Unable to determine electronic state:  an orbital has unidentified symmetry.
 Alpha  occ. eigenvalues --  -20.24726 -20.24725 -20.21612 -20.21612  -1.12292
 Alpha  occ. eigenvalues --   -1.12292  -0.76245  -0.76230  -0.30825  -0.30824
 Alpha  occ. eigenvalues --   -0.28155  -0.28153  -0.26411  -0.26110  -0.10302
 Alpha  occ. eigenvalues --   -0.10300  -0.07768  -0.07765   0.42749
 Alpha virt. eigenvalues --    0.51937   1.06115   1.07196   1.09999   1.10028
 Alpha virt. eigenvalues --    1.11355   1.11379   1.14309   1.15301   1.18683
 Alpha virt. eigenvalues --    1.18750   1.19876   1.19948   1.32916   1.32922

  Beta  occ. eigenvalues --  -20.18871 -20.18871 -20.16480 -20.16480  -0.95938
  Beta  occ. eigenvalues --   -0.95936  -0.57065  -0.57026  -0.16923  -0.16897
  Beta  occ. eigenvalues --   -0.11181  -0.10955  -0.04007  -0.04005   0.24356
  Beta virt. eigenvalues --    0.32771   0.52633   0.52643   0.77072   0.77678
  Beta virt. eigenvalues --    1.14891   1.15592   1.17561   1.17581   1.18084
  Beta virt. eigenvalues --    1.18759   1.19624   1.19635   1.26705   1.26751

 Mulliken charges and spin densities:
               1          2
     1  O   -0.399680   1.100246
     2  O   -0.600320   0.899754
     3  O   -0.600320   0.899754
     4  O   -0.399680   1.100246
 Sum of Mulliken charges =  -2.00000   4.00000

 Dipole moment (field-independent basis, Debye):
    X=             -0.0000    Y=              0.0000    Z=              0.0000  Tot=              0.0000
 Quadrupole moment (field-independent basis, Debye-Ang):
   XX=            -25.1340   YY=            -23.9692   ZZ=           -138.7652
   XY=             -0.0000   XZ=              0.0000   YZ=             -0.0000

 Normal termination of Gaussian 16 at Sat Jan  7 08:43:18 2023.
