 Gaussian 16, Revision A.03,
 Gaussian 16:  ES64L-G16RevA.03 25-Dec-2016

 ------------------------------------------------
 #p CCSD(T,MaxCyc=300)/cc-pVTZ Guess=Read SCF=XQC
 ------------------------------------------------

 ---------
 O2_O2_255
 ---------
 Symbolic Z-matrix:
 Charge = -2 Multiplicity = 5

                         Standard orientation:
 ---------------------------------------------------------------------
 Center     Atomic      Atomic             Coordinates (Angstroms)
 Number     Number       Type             X           Y           Z
 ---------------------------------------------------------------------
      1          8           0        0.000000    0.000000    2.597795
      2          8           0        0.000000    0.000000    3.950175
      3          8           0        0.000000    0.000000   -3.950175
      4          8           0        0.000000    0.000000   -2.597795
 ---------------------------------------------------------------------

 SCF Done:  E(UHF) =  -298.769721175     A.U. after    9 cycles
 E2 =    -0.1252414189D+01 EUMP2 =    -0.30002213536409D+03
 CCSD(T)
 CCSD(T)= -0.29994695719D+03

 Unable to determine electronic state:  an orbital has unidentified symmetry.
 Alpha  occ. eigenvalues --  -20.24903 -20.24903 -20.21896 -20.21895  -1.12531
 Alpha  occ. eigenvalues --   -1.12531  -0.76498  -0.76486  -0.31054  -0.31053
 Alpha  occ. eigenvalues --   -0.28388  -0.28387  -0.26667  -0.26402  -0.10553
 Alpha  occ. eigenvalues --   -0.10552  -0.08014  -0.08012   0.42670
 Alpha virt. eigenvalues --    0.51421   1.06050   1.06685   1.09762   1.09779
 Alpha virt. eigenvalues --    1.11119   1.11133   1.14176   1.14823   1.18444
 Alpha virt. eigenvalues --    1.18486   1.19637   1.19682   1.32679   1.32683

  Beta  occ. eigenvalues --  -20.19053 -20.19052 -20.16748 -20.16748  -0.96165
  Beta  occ. eigenvalues --   -0.96163  -0.57303  -0.57270  -0.17160  -0.17145
  Beta  occ. eigenvalues --   -0.11410  -0.11206  -0.04234  -0.04233   0.24256
  Beta virt. eigenvalues --    0.32396   0.52384   0.52389   0.76926   0.77276
  Beta virt. eigenvalues --    1.14797   1.15208   1.17324   1.17335   1.17919
  Beta virt. eigenvalues --    1.18273   1.19393   1.19399   1.26468   1.26491

 Mulliken charges and spin densities:
               1          2
     1  O   -0.403257   1.097525
     2  O   -0.596743   0.902475
     3  O   -0.596743   0.902475
     4  O   -0.403257   1.097525
 Sum of Mulliken charges =  -2.00000   4.00000

 Dipole moment (field-independent basis, Debye):
    X=             -0.0000    Y=             -0.0000    Z=              0.0000  Tot=              0.0000
 Quadrupole moment (field-independent basis, Debye-Ang):
   XX=            -25.1321   YY=            -23.9673   ZZ=           -144.8655
   XY=             -0.0000   XZ=              0.0000   YZ=             -0.0000

 Normal termination of Gaussian 16 at Sat Jan  7 09:05:35 2023.
