 Gaussian 16, Revision A.03,
 Gaussian 16:  ES64L-G16RevA.03 25-Dec-2016

 ------------------------------------------------
 #p CCSD(T,MaxCyc=300)/cc-pVTZ Guess=Read SCF=XQC
 ------------------------------------------------

 ---------
 O2_O2_145
 ---------
 Symbolic Z-matrix:
 Charge = -2 Multiplicity = 5

                         Standard orientation:
 ---------------------------------------------------------------------
 Center     Atomic      Atomic             Coordinates (Angstroms)
 Number     Number       Type             X           Y           Z
 ---------------------------------------------------------------------
      1          8           0        0.000000    0.000000    1.819073
      2          8           0        0.000000    0.000000    3.171453
      3          8           0        0.000000    0.000000   -3.171453
      4          8           0        0.000000    0.000000   -1.819073
 ---------------------------------------------------------------------

 SCF Done:  E(UHF) =  -298.779644010     A.U. after   16 cycles
 E2 =    -0.1123113630D+01 EUMP2 =    -0.29990275763922D+03
 CCSD(T)
 CCSD(T)= -0.29991151741D+03

 Unable to determine electronic state:  an orbital has unidentified symmetry.
 Alpha  occ. eigenvalues --  -20.24062 -20.24061 -20.19443 -20.19442  -1.10471
 Alpha  occ. eigenvalues --   -1.10455  -0.74201  -0.74063  -0.29211  -0.29164
 Alpha  occ. eigenvalues --   -0.26509  -0.26464  -0.24107  -0.22965  -0.08452
 Alpha  occ. eigenvalues --   -0.08384  -0.05945  -0.05862   0.42164
 Alpha virt. eigenvalues --    0.58891   1.02284   1.11289   1.11434   1.12444
 Alpha virt. eigenvalues --    1.12836   1.13397   1.13701   1.19828   1.20965
 Alpha virt. eigenvalues --    1.22020   1.23316   1.32443   1.34797   1.34865

  Beta  occ. eigenvalues --  -20.18343 -20.18342 -20.14482 -20.14482  -0.94560
  Beta  occ. eigenvalues --   -0.94534  -0.55425  -0.55195  -0.15448  -0.14954
  Beta  occ. eigenvalues --   -0.09615  -0.09073  -0.02362  -0.02309   0.24715
  Beta virt. eigenvalues --    0.35977   0.54407   0.54789   0.76523   0.82540
  Beta virt. eigenvalues --    1.10963   1.17865   1.18723   1.19051   1.19810
  Beta virt. eigenvalues --    1.21167   1.21646   1.27803   1.29993   1.30688

 Mulliken charges and spin densities:
               1          2
     1  O   -0.371002   1.125782
     2  O   -0.628998   0.874218
     3  O   -0.628998   0.874218
     4  O   -0.371002   1.125782
 Sum of Mulliken charges =  -2.00000   4.00000

 Dipole moment (field-independent basis, Debye):
    X=             -0.0000    Y=              0.0000    Z=              0.0000  Tot=              0.0000
 Quadrupole moment (field-independent basis, Debye-Ang):
   XX=            -25.1691   YY=            -24.0091   ZZ=           -100.6429
   XY=             -0.0000   XZ=              0.0000   YZ=             -0.0000

 Normal termination of Gaussian 16 at Sat Jan  7 06:16:54 2023.
