 Gaussian 16, Revision A.03,
 Gaussian 16:  ES64L-G16RevA.03 25-Dec-2016

 ------------------------------------------------
 #p CCSD(T,MaxCyc=300)/cc-pVTZ Guess=Read SCF=XQC
 ------------------------------------------------

 ---------
 O2_O2_219
 ---------
 Symbolic Z-matrix:
 Charge = -2 Multiplicity = 5

                         Standard orientation:
 ---------------------------------------------------------------------
 Center     Atomic      Atomic             Coordinates (Angstroms)
 Number     Number       Type             X           Y           Z
 ---------------------------------------------------------------------
      1          8           0        0.000000    0.000000    2.342940
      2          8           0        0.000000    0.000000    3.695320
      3          8           0        0.000000    0.000000   -3.695320
      4          8           0        0.000000    0.000000   -2.342940
 ---------------------------------------------------------------------

 SCF Done:  E(UHF) =  -298.768854044     A.U. after   11 cycles
 E2 =    -0.1216572505D+01 EUMP2 =    -0.29998542654886D+03
 CCSD(T)
 CCSD(T)= -0.29993721006D+03

 Unable to determine electronic state:  an orbital has unidentified symmetry.
 Alpha  occ. eigenvalues --  -20.24473 -20.24473 -20.21158 -20.21158  -1.11906
 Alpha  occ. eigenvalues --   -1.11905  -0.75830  -0.75808  -0.30463  -0.30459
 Alpha  occ. eigenvalues --   -0.27784  -0.27781  -0.25976  -0.25595  -0.09901
 Alpha  occ. eigenvalues --   -0.09896  -0.07374  -0.07368   0.42828
 Alpha virt. eigenvalues --    0.52924   1.05954   1.08235   1.10376   1.10447
 Alpha virt. eigenvalues --    1.11733   1.11792   1.14359   1.16443   1.19057
 Alpha virt. eigenvalues --    1.19211   1.20249   1.20415   1.33306   1.33310

  Beta  occ. eigenvalues --  -20.18621 -20.18620 -20.16055 -20.16055  -0.95592
  Beta  occ. eigenvalues --   -0.95587  -0.56691  -0.56639  -0.16556  -0.16500
  Beta  occ. eigenvalues --   -0.10821  -0.10555  -0.03645  -0.03641   0.24495
  Beta virt. eigenvalues --    0.33390   0.53033   0.53059   0.77169   0.78474
  Beta virt. eigenvalues --    1.14791   1.16264   1.17936   1.17990   1.18239
  Beta virt. eigenvalues --    1.19971   1.19991   1.20022   1.27074   1.27202

 Mulliken charges and spin densities:
               1          2
     1  O   -0.393767   1.104702
     2  O   -0.606233   0.895298
     3  O   -0.606233   0.895298
     4  O   -0.393767   1.104702
 Sum of Mulliken charges =  -2.00000   4.00000

 Dipole moment (field-independent basis, Debye):
    X=             -0.0000    Y=              0.0000    Z=             -0.0000  Tot=              0.0000
 Quadrupole moment (field-independent basis, Debye-Ang):
   XX=            -25.1382   YY=            -23.9739   ZZ=           -129.5043
   XY=             -0.0000   XZ=              0.0000   YZ=             -0.0000

 3074\PMP3-0=-299.986832\MP4SDQ=-299.641204\CCSD=-299.8165015\CCSD(T)=-
 Normal termination of Gaussian 16 at Sat Jan  7 08:09:24 2023.
