 Gaussian 16, Revision A.03,
 Gaussian 16:  ES64L-G16RevA.03 25-Dec-2016

 ------------------------------------------------
 #p CCSD(T,MaxCyc=300)/cc-pVTZ Guess=Read SCF=XQC
 ------------------------------------------------

 --------
 O2_O2_86
 --------
 Symbolic Z-matrix:
 Charge = -2 Multiplicity = 5

                         Standard orientation:
 ---------------------------------------------------------------------
 Center     Atomic      Atomic             Coordinates (Angstroms)
 Number     Number       Type             X           Y           Z
 ---------------------------------------------------------------------
      1          8           0        0.000000    0.000000    1.401395
      2          8           0        0.000000    0.000000    2.753775
      3          8           0        0.000000    0.000000   -2.753775
      4          8           0        0.000000    0.000000   -1.401395
 ---------------------------------------------------------------------

 SCF Done:  E(UHF) =  -298.781683457     A.U. after   14 cycles
 E2 =    -0.1075173779D+01 EUMP2 =    -0.29985685723525D+03
 CCSD(T)
 CCSD(T)= -0.29988502653D+03

 Unable to determine electronic state:  an orbital has unidentified symmetry.
 Alpha  occ. eigenvalues --  -20.21024 -20.21022 -20.16928 -20.16928  -1.08003
 Alpha  occ. eigenvalues --   -1.07876  -0.71986  -0.71218  -0.26401  -0.26131
 Alpha  occ. eigenvalues --   -0.24114  -0.23809  -0.22640  -0.19259  -0.06331
 Alpha  occ. eigenvalues --   -0.05859  -0.03480  -0.03018   0.41847
 Alpha virt. eigenvalues --    0.64575   1.10805   1.12076   1.12275   1.13368
 Alpha virt. eigenvalues --    1.13507   1.15186   1.16706   1.19529   1.21038
 Alpha virt. eigenvalues --    1.29343   1.30449   1.36774   1.37302   1.64940

  Beta  occ. eigenvalues --  -20.15288 -20.15286 -20.11728 -20.11728  -0.91722
  Beta  occ. eigenvalues --   -0.91529  -0.53040  -0.51843  -0.13428  -0.11045
  Beta  occ. eigenvalues --   -0.07382  -0.06375   0.00565   0.01004   0.25458
  Beta virt. eigenvalues --    0.41818   0.56202   0.57775   0.80643   0.86820
  Beta virt. eigenvalues --    1.17621   1.18526   1.20528   1.21184   1.22254
  Beta virt. eigenvalues --    1.22300   1.25032   1.27663   1.30977   1.37613

 Mulliken charges and spin densities:
               1          2
     1  O   -0.374896   1.057868
     2  O   -0.625104   0.942132
     3  O   -0.625104   0.942132
     4  O   -0.374896   1.057868
 Sum of Mulliken charges =  -2.00000   4.00000

 Dipole moment (field-independent basis, Debye):
    X=             -0.0000    Y=              0.0000    Z=              0.0000  Tot=              0.0000
 Quadrupole moment (field-independent basis, Debye-Ang):
   XX=            -25.2245   YY=            -24.0362   ZZ=            -80.8717
   XY=             -0.0000   XZ=              0.0000   YZ=             -0.0000

 Normal termination of Gaussian 16 at Sat Jan  7 04:51:55 2023.
