 Gaussian 16, Revision A.03,
 Gaussian 16:  ES64L-G16RevA.03 25-Dec-2016

 ------------------------------------------------
 #p CCSD(T,MaxCyc=300)/cc-pVTZ Guess=Read SCF=XQC
 ------------------------------------------------

 ---------
 O2_O2_194
 ---------
 Symbolic Z-matrix:
 Charge = -2 Multiplicity = 5

                         Standard orientation:
 ---------------------------------------------------------------------
 Center     Atomic      Atomic             Coordinates (Angstroms)
 Number     Number       Type             X           Y           Z
 ---------------------------------------------------------------------
      1          8           0        0.000000    0.000000    2.165958
      2          8           0        0.000000    0.000000    3.518338
      3          8           0        0.000000    0.000000   -3.518338
      4          8           0        0.000000    0.000000   -2.165958
 ---------------------------------------------------------------------

 SCF Done:  E(UHF) =  -298.770310301     A.U. after   16 cycles
 E2 =    -0.1187015051D+01 EUMP2 =    -0.29995732535284D+03
 CCSD(T)
 CCSD(T)= -0.29992930957D+03

 Unable to determine electronic state:  an orbital has unidentified symmetry.
 Alpha  occ. eigenvalues --  -20.24268 -20.24268 -20.20642 -20.20642  -1.11462
 Alpha  occ. eigenvalues --   -1.11459  -0.75337  -0.75298  -0.30062  -0.30054
 Alpha  occ. eigenvalues --   -0.27373  -0.27365  -0.25421  -0.24895  -0.09445
 Alpha  occ. eigenvalues --   -0.09432  -0.06927  -0.06911   0.42796
 Alpha virt. eigenvalues --    0.54423   1.05127   1.09623   1.10790   1.10982
 Alpha virt. eigenvalues --    1.12151   1.12312   1.14105   1.19002   1.19442
 Alpha virt. eigenvalues --    1.19845   1.20627   1.21064   1.33763   1.33772

  Beta  occ. eigenvalues --  -20.18441 -20.18440 -20.15581 -20.15581  -0.95239
  Beta  occ. eigenvalues --   -0.95232  -0.56284  -0.56204  -0.16175  -0.16048
  Beta  occ. eigenvalues --   -0.10432  -0.10102  -0.03245  -0.03234   0.24606
  Beta virt. eigenvalues --    0.34137   0.53484   0.53556   0.76995   0.79662
  Beta virt. eigenvalues --    1.13988   1.16975   1.18303   1.18346   1.18495
  Beta virt. eigenvalues --    1.20399   1.20486   1.22671   1.27449   1.27824

 Mulliken charges and spin densities:
               1          2
     1  O   -0.386676   1.110435
     2  O   -0.613324   0.889565
     3  O   -0.613324   0.889565
     4  O   -0.386676   1.110435
 Sum of Mulliken charges =  -2.00000   4.00000

 Dipole moment (field-independent basis, Debye):
    X=             -0.0000    Y=              0.0000    Z=              0.0000  Tot=              0.0000
 Quadrupole moment (field-independent basis, Debye-Ang):
   XX=            -25.1455   YY=            -23.9828   ZZ=           -119.3961
   XY=             -0.0000   XZ=              0.0000   YZ=             -0.0000

 Normal termination of Gaussian 16 at Sat Jan  7 07:31:13 2023.
