 Gaussian 16, Revision A.03,
 Gaussian 16:  ES64L-G16RevA.03 25-Dec-2016

 ------------------------------------------------
 #p CCSD(T,MaxCyc=300)/cc-pVTZ Guess=Read SCF=XQC
 ------------------------------------------------

 ---------
 O2_O2_160
 ---------
 Symbolic Z-matrix:
 Charge = -2 Multiplicity = 5

                         Standard orientation:
 ---------------------------------------------------------------------
 Center     Atomic      Atomic             Coordinates (Angstroms)
 Number     Number       Type             X           Y           Z
 ---------------------------------------------------------------------
      1          8           0        0.000000    0.000000    1.925262
      2          8           0        0.000000    0.000000    3.277642
      3          8           0        0.000000    0.000000   -3.277642
      4          8           0        0.000000    0.000000   -1.925262
 ---------------------------------------------------------------------

 SCF Done:  E(UHF) =  -298.776279092     A.U. after   16 cycles
 E2 =    -0.1141931646D+01 EUMP2 =    -0.29991821073833D+03
 CCSD(T)
 CCSD(T)= -0.29991723740D+03

 Unable to determine electronic state:  an orbital has unidentified symmetry.
 Alpha  occ. eigenvalues --  -20.24152 -20.24151 -20.19880 -20.19879  -1.10821
 Alpha  occ. eigenvalues --   -1.10812  -0.74596  -0.74504  -0.29520  -0.29491
 Alpha  occ. eigenvalues --   -0.26814  -0.26787  -0.24539  -0.23653  -0.08800
 Alpha  occ. eigenvalues --   -0.08757  -0.06294  -0.06243   0.42427
 Alpha virt. eigenvalues --    0.57331   1.02952   1.10997   1.11265   1.11904
 Alpha virt. eigenvalues --    1.12649   1.13189   1.13530   1.19778   1.20934
 Alpha virt. eigenvalues --    1.21137   1.22401   1.26890   1.34418   1.34479

  Beta  occ. eigenvalues --  -20.18400 -20.18400 -20.14891 -20.14891  -0.94816
  Beta  occ. eigenvalues --   -0.94800  -0.55737  -0.55576  -0.15707  -0.15372
  Beta  occ. eigenvalues --   -0.09914  -0.09454  -0.02693  -0.02660   0.24671
  Beta virt. eigenvalues --    0.35302   0.54099   0.54338   0.76487   0.81628
  Beta virt. eigenvalues --    1.11715   1.17647   1.18516   1.18838   1.19329
  Beta virt. eigenvalues --    1.20919   1.21218   1.27762   1.29101   1.30279

 Mulliken charges and spin densities:
               1          2
     1  O   -0.376157   1.121048
     2  O   -0.623843   0.878952
     3  O   -0.623843   0.878952
     4  O   -0.376157   1.121048
 Sum of Mulliken charges =  -2.00000   4.00000

 Dipole moment (field-independent basis, Debye):
    X=             -0.0000    Y=              0.0000    Z=             -0.0000  Tot=              0.0000
 Quadrupole moment (field-independent basis, Debye-Ang):
   XX=            -25.1607   YY=            -24.0005   ZZ=           -106.2125
   XY=             -0.0000   XZ=              0.0000   YZ=             -0.0000

 Normal termination of Gaussian 16 at Sat Jan  7 06:39:09 2023.
