 Gaussian 16, Revision A.03,
 Gaussian 16:  ES64L-G16RevA.03 25-Dec-2016

 ------------------------------------------------
 #p CCSD(T,MaxCyc=300)/cc-pVTZ Guess=Read SCF=XQC
 ------------------------------------------------

 ---------
 O2_O2_276
 ---------
 Symbolic Z-matrix:
 Charge = -2 Multiplicity = 5

                         Standard orientation:
 ---------------------------------------------------------------------
 Center     Atomic      Atomic             Coordinates (Angstroms)
 Number     Number       Type             X           Y           Z
 ---------------------------------------------------------------------
      1          8           0        0.000000    0.000000    2.746460
      2          8           0        0.000000    0.000000    4.098840
      3          8           0        0.000000    0.000000   -4.098840
      4          8           0        0.000000    0.000000   -2.746460
 ---------------------------------------------------------------------

 SCF Done:  E(UHF) =  -298.770960920     A.U. after    9 cycles
 E2 =    -0.1270828394D+01 EUMP2 =    -0.30004178931486D+03
 CCSD(T)
 CCSD(T)= -0.29995186038D+03

 Unable to determine electronic state:  an orbital has unidentified symmetry.
 Alpha  occ. eigenvalues --  -20.25175 -20.25174 -20.22306 -20.22306  -1.12874
 Alpha  occ. eigenvalues --   -1.12874  -0.76858  -0.76850  -0.31385  -0.31385
 Alpha  occ. eigenvalues --   -0.28727  -0.28726  -0.27023  -0.26800  -0.10915
 Alpha  occ. eigenvalues --   -0.10915  -0.08368  -0.08368   0.42531
 Alpha virt. eigenvalues --    0.50759   1.05825   1.06095   1.09422   1.09430
 Alpha virt. eigenvalues --    1.10779   1.10786   1.13899   1.14281   1.18097
 Alpha virt. eigenvalues --    1.18120   1.19290   1.19315   1.32340   1.32343

  Beta  occ. eigenvalues --  -20.19336 -20.19336 -20.17138 -20.17138  -0.96501
  Beta  occ. eigenvalues --   -0.96499  -0.57649  -0.57622  -0.17509  -0.17502
  Beta  occ. eigenvalues --   -0.11744  -0.11567  -0.04562  -0.04562   0.24101
  Beta virt. eigenvalues --    0.31864   0.52023   0.52025   0.76642   0.76784
  Beta virt. eigenvalues --    1.14550   1.14720   1.16982   1.16987   1.17614
  Beta virt. eigenvalues --    1.17740   1.19061   1.19063   1.26123   1.26131

 Mulliken charges and spin densities:
               1          2
     1  O   -0.408286   1.093610
     2  O   -0.591714   0.906390
     3  O   -0.591714   0.906390
     4  O   -0.408286   1.093610
 Sum of Mulliken charges =  -2.00000   4.00000

 Dipole moment (field-independent basis, Debye):
    X=             -0.0000    Y=             -0.0000    Z=              0.0000  Tot=              0.0000
 Quadrupole moment (field-independent basis, Debye-Ang):
   XX=            -25.1299   YY=            -23.9654   ZZ=           -154.3456
   XY=             -0.0000   XZ=              0.0000   YZ=             -0.0000

 Normal termination of Gaussian 16 at Sat Jan  7 09:39:24 2023.
