 Gaussian 16, Revision A.03,
 Gaussian 16:  ES64L-G16RevA.03 25-Dec-2016

 ------------------------------------------------
 #p CCSD(T,MaxCyc=300)/cc-pVTZ Guess=Read SCF=XQC
 ------------------------------------------------

 ---------
 O2_O2_213
 ---------
 Symbolic Z-matrix:
 Charge = -2 Multiplicity = 5

                         Standard orientation:
 ---------------------------------------------------------------------
 Center     Atomic      Atomic             Coordinates (Angstroms)
 Number     Number       Type             X           Y           Z
 ---------------------------------------------------------------------
      1          8           0        0.000000    0.000000    2.300464
      2          8           0        0.000000    0.000000    3.652845
      3          8           0        0.000000    0.000000   -3.652845
      4          8           0        0.000000    0.000000   -2.300464
 ---------------------------------------------------------------------

 SCF Done:  E(UHF) =  -298.768999994     A.U. after   12 cycles
 E2 =    -0.1209864030D+01 EUMP2 =    -0.29997886402415D+03
 CCSD(T)
 CCSD(T)= -0.29993539971D+03

 Unable to determine electronic state:  an orbital has unidentified symmetry.
 Alpha  occ. eigenvalues --  -20.24414 -20.24414 -20.21034 -20.21034  -1.11800
 Alpha  occ. eigenvalues --   -1.11798  -0.75713  -0.75689  -0.30365  -0.30361
 Alpha  occ. eigenvalues --   -0.27684  -0.27680  -0.25849  -0.25439  -0.09791
 Alpha  occ. eigenvalues --   -0.09785  -0.07266  -0.07258   0.42835
 Alpha virt. eigenvalues --    0.53242   1.05829   1.08562   1.10478   1.10569
 Alpha virt. eigenvalues --    1.11835   1.11911   1.14328   1.16893   1.19156
 Alpha virt. eigenvalues --    1.19349   1.20346   1.20556   1.33416   1.33418

  Beta  occ. eigenvalues --  -20.18565 -20.18565 -20.15940 -20.15940  -0.95502
  Beta  occ. eigenvalues --   -0.95497  -0.56591  -0.56534  -0.16460  -0.16392
  Beta  occ. eigenvalues --   -0.10725  -0.10445  -0.03547  -0.03542   0.24527
  Beta virt. eigenvalues --    0.33565   0.53142   0.53176   0.77158   0.78731
  Beta virt. eigenvalues --    1.14680   1.16447   1.18037   1.18107   1.18260
  Beta virt. eigenvalues --    1.20091   1.20130   1.20456   1.27171   1.27338

 Mulliken charges and spin densities:
               1          2
     1  O   -0.392100   1.105984
     2  O   -0.607900   0.894016
     3  O   -0.607900   0.894016
     4  O   -0.392100   1.105984
 Sum of Mulliken charges =  -2.00000   4.00000

 Dipole moment (field-independent basis, Debye):
    X=             -0.0000    Y=             -0.0000    Z=             -0.0000  Tot=              0.0000
 Quadrupole moment (field-independent basis, Debye-Ang):
   XX=            -25.1397   YY=            -23.9757   ZZ=           -127.0415
   XY=             -0.0000   XZ=              0.0000   YZ=             -0.0000

 82\PMP3-0=-299.9771733\MP4SDQ=-299.6587741\CCSD=-299.8157328\CCSD(T)=-
 Normal termination of Gaussian 16 at Sat Jan  7 08:00:10 2023.
