 Gaussian 16, Revision A.03,
 Gaussian 16:  ES64L-G16RevA.03 25-Dec-2016

 ------------------------------------------------
 #p CCSD(T,MaxCyc=300)/cc-pVTZ Guess=Read SCF=XQC
 ------------------------------------------------

 ---------
 O2_O2_137
 ---------
 Symbolic Z-matrix:
 Charge = -2 Multiplicity = 5

                         Standard orientation:
 ---------------------------------------------------------------------
 Center     Atomic      Atomic             Coordinates (Angstroms)
 Number     Number       Type             X           Y           Z
 ---------------------------------------------------------------------
      1          8           0        0.000000    0.000000    1.762439
      2          8           0        0.000000    0.000000    3.114819
      3          8           0        0.000000    0.000000   -3.114819
      4          8           0        0.000000    0.000000   -1.762439
 ---------------------------------------------------------------------

 SCF Done:  E(UHF) =  -298.781197130     A.U. after   16 cycles
 E2 =    -0.1114276871D+01 EUMP2 =    -0.29989547400088D+03
 CCSD(T)
 CCSD(T)= -0.29990836017D+03

 Unable to determine electronic state:  an orbital has unidentified symmetry.
 Alpha  occ. eigenvalues --  -20.23957 -20.23956 -20.19164 -20.19164  -1.10248
 Alpha  occ. eigenvalues --   -1.10226  -0.73962  -0.73790  -0.28998  -0.28938
 Alpha  occ. eigenvalues --   -0.26310  -0.26250  -0.23874  -0.22562  -0.08237
 Alpha  occ. eigenvalues --   -0.08149  -0.05719  -0.05614   0.42026
 Alpha virt. eigenvalues --    0.59741   1.02246   1.11379   1.11517   1.12778
 Alpha virt. eigenvalues --    1.12927   1.13379   1.14019   1.19831   1.20958
 Alpha virt. eigenvalues --    1.22611   1.23925   1.34819   1.35104   1.36151

  Beta  occ. eigenvalues --  -20.18247 -20.18246 -20.14211 -20.14210  -0.94367
  Beta  occ. eigenvalues --   -0.94334  -0.55214  -0.54933  -0.15271  -0.14663
  Beta  occ. eigenvalues --   -0.09409  -0.08816  -0.02126  -0.02059   0.24758
  Beta virt. eigenvalues --    0.36418   0.54591   0.55073   0.76704   0.83038
  Beta virt. eigenvalues --    1.10845   1.17973   1.18872   1.19174   1.20106
  Beta virt. eigenvalues --    1.21316   1.21927   1.27802   1.30600   1.30668

 Mulliken charges and spin densities:
               1          2
     1  O   -0.368270   1.127106
     2  O   -0.631730   0.872894
     3  O   -0.631730   0.872894
     4  O   -0.368270   1.127106
 Sum of Mulliken charges =  -2.00000   4.00000

 Dipole moment (field-independent basis, Debye):
    X=             -0.0000    Y=              0.0000    Z=              0.0000  Tot=              0.0000
 Quadrupole moment (field-independent basis, Debye-Ang):
   XX=            -25.1741   YY=            -24.0137   ZZ=            -97.7685
   XY=             -0.0000   XZ=              0.0000   YZ=             -0.0000

 Normal termination of Gaussian 16 at Sat Jan  7 06:05:07 2023.
