 Gaussian 16, Revision A.03,
 Gaussian 16:  ES64L-G16RevA.03 25-Dec-2016

 ------------------------------------------------
 #p CCSD(T,MaxCyc=300)/cc-pVTZ Guess=Read SCF=XQC
 ------------------------------------------------

 ---------
 O2_O2_115
 ---------
 Symbolic Z-matrix:
 Charge = -2 Multiplicity = 5

                         Standard orientation:
 ---------------------------------------------------------------------
 Center     Atomic      Atomic             Coordinates (Angstroms)
 Number     Number       Type             X           Y           Z
 ---------------------------------------------------------------------
      1          8           0        0.000000    0.000000    1.606694
      2          8           0        0.000000    0.000000    2.959074
      3          8           0        0.000000    0.000000   -2.959074
      4          8           0        0.000000    0.000000   -1.606694
 ---------------------------------------------------------------------

 SCF Done:  E(UHF) =  -298.783342825     A.U. after   16 cycles
 E2 =    -0.1095700245D+01 EUMP2 =    -0.29987904307004D+03
 CCSD(T)
 CCSD(T)= -0.29989914248D+03

 Unable to determine electronic state:  an orbital has unidentified symmetry.
 Alpha  occ. eigenvalues --  -20.23269 -20.23268 -20.18250 -20.18250  -1.09457
 Alpha  occ. eigenvalues --   -1.09411  -0.73196  -0.72875  -0.28147  -0.28027
 Alpha  occ. eigenvalues --   -0.25571  -0.25449  -0.23268  -0.21319  -0.07534
 Alpha  occ. eigenvalues --   -0.07359  -0.04917  -0.04717   0.41767
 Alpha virt. eigenvalues --    0.61943   1.03999   1.11380   1.11745   1.13131
 Alpha virt. eigenvalues --    1.13470   1.13830   1.15073   1.19751   1.20916
 Alpha virt. eigenvalues --    1.24809   1.26144   1.35622   1.35921   1.47493

  Beta  occ. eigenvalues --  -20.17550 -20.17549 -20.13259 -20.13259  -0.93533
  Beta  occ. eigenvalues --   -0.93465  -0.54419  -0.53912  -0.14600  -0.13517
  Beta  occ. eigenvalues --   -0.08633  -0.07869  -0.01150  -0.01010   0.24969
  Beta virt. eigenvalues --    0.38091   0.55172   0.56027   0.77895   0.84507
  Beta virt. eigenvalues --    1.12080   1.18245   1.19439   1.19601   1.21038
  Beta virt. eigenvalues --    1.21787   1.22970   1.27737   1.30601   1.32898

 Mulliken charges and spin densities:
               1          2
     1  O   -0.363743   1.118037
     2  O   -0.636257   0.881963
     3  O   -0.636257   0.881963
     4  O   -0.363743   1.118037
 Sum of Mulliken charges =  -2.00000   4.00000

 Dipole moment (field-independent basis, Debye):
    X=             -0.0000    Y=             -0.0000    Z=              0.0000  Tot=              0.0000
 Quadrupole moment (field-independent basis, Debye-Ang):
   XX=            -25.1915   YY=            -24.0276   ZZ=            -90.2381
   XY=             -0.0000   XZ=              0.0000   YZ=             -0.0000

 Normal termination of Gaussian 16 at Sat Jan  7 05:32:14 2023.
