 Gaussian 16, Revision A.03,
 Gaussian 16:  ES64L-G16RevA.03 25-Dec-2016

 ------------------------------------------------
 #p CCSD(T,MaxCyc=300)/cc-pVTZ Guess=Read SCF=XQC
 ------------------------------------------------

 ---------
 O2_O2_134
 ---------
 Symbolic Z-matrix:
 Charge = -2 Multiplicity = 5

                         Standard orientation:
 ---------------------------------------------------------------------
 Center     Atomic      Atomic             Coordinates (Angstroms)
 Number     Number       Type             X           Y           Z
 ---------------------------------------------------------------------
      1          8           0        0.000000    0.000000    1.741201
      2          8           0        0.000000    0.000000    3.093581
      3          8           0        0.000000    0.000000   -3.093581
      4          8           0        0.000000    0.000000   -1.741201
 ---------------------------------------------------------------------

 SCF Done:  E(UHF) =  -298.781693269     A.U. after   16 cycles
 E2 =    -0.1111244407D+01 EUMP2 =    -0.29989293767579D+03
 CCSD(T)
 CCSD(T)= -0.29990715336D+03

 Unable to determine electronic state:  an orbital has unidentified symmetry.
 Alpha  occ. eigenvalues --  -20.23901 -20.23901 -20.19051 -20.19051  -1.10156
 Alpha  occ. eigenvalues --   -1.10132  -0.73867  -0.73680  -0.28907  -0.28841
 Alpha  occ. eigenvalues --   -0.26226  -0.26161  -0.23787  -0.22404  -0.08150
 Alpha  occ. eigenvalues --   -0.08054  -0.05626  -0.05511   0.41977
 Alpha virt. eigenvalues --    0.60056   1.02311   1.11401   1.11547   1.12911
 Alpha virt. eigenvalues --    1.12960   1.13382   1.14148   1.19827   1.20953
 Alpha virt. eigenvalues --    1.22858   1.24179   1.34964   1.35202   1.37505

  Beta  occ. eigenvalues --  -20.18193 -20.18193 -20.14098 -20.14098  -0.94281
  Beta  occ. eigenvalues --   -0.94245  -0.55124  -0.54821  -0.15196  -0.14539
  Beta  occ. eigenvalues --   -0.09322  -0.08708  -0.02023  -0.01949   0.24779
  Beta virt. eigenvalues --    0.36602   0.54664   0.55188   0.76807   0.83228
  Beta virt. eigenvalues --    1.10869   1.18013   1.18936   1.19224   1.20225
  Beta virt. eigenvalues --    1.21376   1.22044   1.27798   1.30658   1.30856

 Mulliken charges and spin densities:
               1          2
     1  O   -0.367300   1.127184
     2  O   -0.632700   0.872816
     3  O   -0.632700   0.872816
     4  O   -0.367300   1.127184
 Sum of Mulliken charges =  -2.00000   4.00000

 Dipole moment (field-independent basis, Debye):
    X=             -0.0000    Y=             -0.0000    Z=             -0.0000  Tot=              0.0000
 Quadrupole moment (field-independent basis, Debye-Ang):
   XX=            -25.1761   YY=            -24.0154   ZZ=            -96.7107
   XY=             -0.0000   XZ=              0.0000   YZ=             -0.0000

 Normal termination of Gaussian 16 at Sat Jan  7 06:00:50 2023.
