 Gaussian 16, Revision A.03,
 Gaussian 16:  ES64L-G16RevA.03 25-Dec-2016

 ------------------------------------------------
 #p CCSD(T,MaxCyc=300)/cc-pVTZ Guess=Read SCF=XQC
 ------------------------------------------------

 ---------
 O2_O2_283
 ---------
 Symbolic Z-matrix:
 Charge = -2 Multiplicity = 5

                         Standard orientation:
 ---------------------------------------------------------------------
 Center     Atomic      Atomic             Coordinates (Angstroms)
 Number     Number       Type             X           Y           Z
 ---------------------------------------------------------------------
      1          8           0        0.000000    0.000000    2.796015
      2          8           0        0.000000    0.000000    4.148395
      3          8           0        0.000000    0.000000   -4.148395
      4          8           0        0.000000    0.000000   -2.796015
 ---------------------------------------------------------------------

 SCF Done:  E(UHF) =  -298.771418637     A.U. after   15 cycles
 E2 =    -0.1276719172D+01 EUMP2 =    -0.30004813780954D+03
 CCSD(T)
 CCSD(T)= -0.29995338857D+03

 Unable to determine electronic state:  an orbital has unidentified symmetry.
 Alpha  occ. eigenvalues --  -20.25264 -20.25264 -20.22439 -20.22439  -1.12984
 Alpha  occ. eigenvalues --   -1.12984  -0.76973  -0.76965  -0.31492  -0.31491
 Alpha  occ. eigenvalues --   -0.28836  -0.28835  -0.27135  -0.26923  -0.11031
 Alpha  occ. eigenvalues --   -0.11031  -0.08482  -0.08481   0.42483
 Alpha virt. eigenvalues --    0.50561   1.05731   1.05932   1.09313   1.09319
 Alpha virt. eigenvalues --    1.10670   1.10676   1.13797   1.14129   1.17986
 Alpha virt. eigenvalues --    1.18006   1.19178   1.19200   1.32232   1.32235

  Beta  occ. eigenvalues --  -20.19430 -20.19430 -20.17264 -20.17264  -0.96610
  Beta  occ. eigenvalues --   -0.96609  -0.57761  -0.57735  -0.17622  -0.17617
  Beta  occ. eigenvalues --   -0.11852  -0.11683  -0.04668  -0.04667   0.24049
  Beta virt. eigenvalues --    0.31695   0.51908   0.51909   0.76539   0.76642
  Beta virt. eigenvalues --    1.14453   1.14578   1.16873   1.16876   1.17505
  Beta virt. eigenvalues --    1.17593   1.18954   1.18955   1.26012   1.26018

 Mulliken charges and spin densities:
               1          2
     1  O   -0.409878   1.092342
     2  O   -0.590122   0.907658
     3  O   -0.590122   0.907658
     4  O   -0.409878   1.092342
 Sum of Mulliken charges =  -2.00000   4.00000

 Dipole moment (field-independent basis, Debye):
    X=             -0.0000    Y=             -0.0000    Z=             -0.0000  Tot=              0.0000
 Quadrupole moment (field-independent basis, Debye-Ang):
   XX=            -25.1293   YY=            -23.9650   ZZ=           -157.5962
   XY=             -0.0000   XZ=              0.0000   YZ=             -0.0000

 Normal termination of Gaussian 16 at Sat Jan  7 09:50:24 2023.
