 Gaussian 16, Revision A.03,
 Gaussian 16:  ES64L-G16RevA.03 25-Dec-2016

 ------------------------------------------------
 #p CCSD(T,MaxCyc=300)/cc-pVTZ Guess=Read SCF=XQC
 ------------------------------------------------

 --------
 O2_O2_18
 --------
 Symbolic Z-matrix:
 Charge = -2 Multiplicity = 5

                         Standard orientation:
 ---------------------------------------------------------------------
 Center     Atomic      Atomic             Coordinates (Angstroms)
 Number     Number       Type             X           Y           Z
 ---------------------------------------------------------------------
      1          8           0        0.000000    0.000000    0.920002
      2          8           0        0.000000    0.000000    2.272383
      3          8           0        0.000000    0.000000   -2.272383
      4          8           0        0.000000    0.000000   -0.920002
 ---------------------------------------------------------------------

 SCF Done:  E(UHF) =  -298.758777417     A.U. after   13 cycles
 E2 =    -0.1003186163D+01 EUMP2 =    -0.29976196357939D+03
 CCSD(T)
 CCSD(T)= -0.29981287589D+03

 Unable to determine electronic state:  an orbital has unidentified symmetry.
 Alpha  occ. eigenvalues --  -20.13909 -20.13899 -20.11651 -20.11651  -1.04704
 Alpha  occ. eigenvalues --   -1.02928  -0.71475  -0.64166  -0.24270  -0.22634
 Alpha  occ. eigenvalues --   -0.20870  -0.20657  -0.18028  -0.09255  -0.03289
 Alpha  occ. eigenvalues --   -0.00144   0.01120   0.03257   0.41028
 Alpha virt. eigenvalues --    0.76667   1.09973   1.12339   1.16386   1.17211
 Alpha virt. eigenvalues --    1.18381   1.20755   1.22944   1.24840   1.38639
 Alpha virt. eigenvalues --    1.39364   1.41733   1.42145   1.50354   1.92632

  Beta  occ. eigenvalues --  -20.08263 -20.08258 -20.05930 -20.05930  -0.87434
  Beta  occ. eigenvalues --   -0.84931  -0.53824  -0.43518  -0.13382  -0.04485
  Beta  occ. eigenvalues --   -0.01835   0.01339   0.01903   0.06884   0.24079
  Beta virt. eigenvalues --    0.55513   0.59162   0.64829   0.87215   0.94003
  Beta virt. eigenvalues --    1.20730   1.21948   1.24829   1.25673   1.25830
  Beta virt. eigenvalues --    1.30687   1.32567   1.36117   1.40722   1.41473

 Mulliken charges and spin densities:
               1          2
     1  O   -0.349325   0.892179
     2  O   -0.650675   1.107821
     3  O   -0.650675   1.107821
     4  O   -0.349325   0.892179
 Sum of Mulliken charges =  -2.00000   4.00000

 Dipole moment (field-independent basis, Debye):
    X=             -0.0000    Y=             -0.0000    Z=             -0.0000  Tot=              0.0000
 Quadrupole moment (field-independent basis, Debye-Ang):
   XX=            -25.2704   YY=            -23.9307   ZZ=            -65.4776
   XY=             -0.0000   XZ=              0.0000   YZ=             -0.0000

 Normal termination of Gaussian 16 at Sat Jan  7 03:18:22 2023.
