 Gaussian 16, Revision A.03,
 Gaussian 16:  ES64L-G16RevA.03 25-Dec-2016

 ------------------------------------------------
 #p CCSD(T,MaxCyc=300)/cc-pVTZ Guess=Read SCF=XQC
 ------------------------------------------------

 ---------
 O2_O2_285
 ---------
 Symbolic Z-matrix:
 Charge = -2 Multiplicity = 5

                         Standard orientation:
 ---------------------------------------------------------------------
 Center     Atomic      Atomic             Coordinates (Angstroms)
 Number     Number       Type             X           Y           Z
 ---------------------------------------------------------------------
      1          8           0        0.000000    0.000000    2.810173
      2          8           0        0.000000    0.000000    4.162554
      3          8           0        0.000000    0.000000   -4.162554
      4          8           0        0.000000    0.000000   -2.810173
 ---------------------------------------------------------------------

 SCF Done:  E(UHF) =  -298.771551449     A.U. after   14 cycles
 E2 =    -0.1278385016D+01 EUMP2 =    -0.30004993646442D+03
 CCSD(T)
 CCSD(T)= -0.29995381589D+03

 Unable to determine electronic state:  an orbital has unidentified symmetry.
 Alpha  occ. eigenvalues --  -20.25290 -20.25289 -20.22476 -20.22476  -1.13015
 Alpha  occ. eigenvalues --   -1.13015  -0.77005  -0.76998  -0.31522  -0.31521
 Alpha  occ. eigenvalues --   -0.28866  -0.28866  -0.27167  -0.26958  -0.11064
 Alpha  occ. eigenvalues --   -0.11064  -0.08514  -0.08513   0.42469
 Alpha virt. eigenvalues --    0.50507   1.05703   1.05888   1.09282   1.09288
 Alpha virt. eigenvalues --    1.10640   1.10645   1.13768   1.14087   1.17954
 Alpha virt. eigenvalues --    1.17973   1.19147   1.19167   1.32202   1.32204

  Beta  occ. eigenvalues --  -20.19457 -20.19456 -20.17299 -20.17299  -0.96641
  Beta  occ. eigenvalues --   -0.96640  -0.57792  -0.57767  -0.17654  -0.17649
  Beta  occ. eigenvalues --   -0.11883  -0.11716  -0.04697  -0.04697   0.24034
  Beta virt. eigenvalues --    0.31648   0.51875   0.51877   0.76509   0.76603
  Beta virt. eigenvalues --    1.14424   1.14539   1.16842   1.16845   1.17474
  Beta virt. eigenvalues --    1.17553   1.18924   1.18925   1.25981   1.25986

 Mulliken charges and spin densities:
               1          2
     1  O   -0.410322   1.091987
     2  O   -0.589678   0.908013
     3  O   -0.589678   0.908013
     4  O   -0.410322   1.091987
 Sum of Mulliken charges =  -2.00000   4.00000

 Dipole moment (field-independent basis, Debye):
    X=             -0.0000    Y=              0.0000    Z=             -0.0000  Tot=              0.0000
 Quadrupole moment (field-independent basis, Debye-Ang):
   XX=            -25.1292   YY=            -23.9649   ZZ=           -158.5337
   XY=             -0.0000   XZ=              0.0000   YZ=             -0.0000

 Normal termination of Gaussian 16 at Sat Jan  7 09:53:22 2023.
