 Gaussian 16, Revision A.03,
 Gaussian 16:  ES64L-G16RevA.03 25-Dec-2016

 ------------------------------------------------
 #p CCSD(T,MaxCyc=300)/cc-pVTZ Guess=Read SCF=XQC
 ------------------------------------------------

 ---------
 O2_O2_127
 ---------
 Symbolic Z-matrix:
 Charge = -2 Multiplicity = 5

                         Standard orientation:
 ---------------------------------------------------------------------
 Center     Atomic      Atomic             Coordinates (Angstroms)
 Number     Number       Type             X           Y           Z
 ---------------------------------------------------------------------
      1          8           0        0.000000    0.000000    1.691645
      2          8           0        0.000000    0.000000    3.044026
      3          8           0        0.000000    0.000000   -3.044026
      4          8           0        0.000000    0.000000   -1.691645
 ---------------------------------------------------------------------

 SCF Done:  E(UHF) =  -298.782617579     A.U. after   16 cycles
 E2 =    -0.1104809127D+01 EUMP2 =    -0.29988742670643D+03
 CCSD(T)
 CCSD(T)= -0.29990428212D+03

 Unable to determine electronic state:  an orbital has unidentified symmetry.
 Alpha  occ. eigenvalues --  -20.23731 -20.23731 -20.18770 -20.18770  -1.09923
 Alpha  occ. eigenvalues --   -1.09893  -0.73633  -0.73405  -0.28667  -0.28584
 Alpha  occ. eigenvalues --   -0.26011  -0.25929  -0.23588  -0.22022  -0.07935
 Alpha  occ. eigenvalues --   -0.07816  -0.05389  -0.05248   0.41878
 Alpha virt. eigenvalues --    0.60777   1.02657   1.11427   1.11617   1.13030
 Alpha virt. eigenvalues --    1.13237   1.13404   1.14467   1.19810   1.20939
 Alpha virt. eigenvalues --    1.23495   1.24829   1.35205   1.35446   1.40961

  Beta  occ. eigenvalues --  -20.18023 -20.18023 -20.13812 -20.13812  -0.94049
  Beta  occ. eigenvalues --   -0.94003  -0.54893  -0.54528  -0.15000  -0.14212
  Beta  occ. eigenvalues --   -0.09095  -0.08428  -0.01747  -0.01655   0.24838
  Beta virt. eigenvalues --    0.37080   0.54843   0.55475   0.77121   0.83682
  Beta virt. eigenvalues --    1.11089   1.18103   1.19101   1.19348   1.20514
  Beta virt. eigenvalues --    1.21522   1.22345   1.27783   1.30632   1.31518

 Mulliken charges and spin densities:
               1          2
     1  O   -0.365299   1.126087
     2  O   -0.634701   0.873913
     3  O   -0.634701   0.873913
     4  O   -0.365299   1.126087
 Sum of Mulliken charges =  -2.00000   4.00000

 Dipole moment (field-independent basis, Debye):
    X=             -0.0000    Y=              0.0000    Z=             -0.0000  Tot=              0.0000
 Quadrupole moment (field-independent basis, Debye-Ang):
   XX=            -25.1812   YY=            -24.0196   ZZ=            -94.2851
   XY=             -0.0000   XZ=              0.0000   YZ=             -0.0000

 Normal termination of Gaussian 16 at Sat Jan  7 05:50:20 2023.
