 Gaussian 16, Revision A.03,
 Gaussian 16:  ES64L-G16RevA.03 25-Dec-2016

 ------------------------------------------------
 #p CCSD(T,MaxCyc=300)/cc-pVTZ Guess=Read SCF=XQC
 ------------------------------------------------

 ---------
 O2_O2_178
 ---------
 Symbolic Z-matrix:
 Charge = -2 Multiplicity = 5

                         Standard orientation:
 ---------------------------------------------------------------------
 Center     Atomic      Atomic             Coordinates (Angstroms)
 Number     Number       Type             X           Y           Z
 ---------------------------------------------------------------------
      1          8           0        0.000000    0.000000    2.052690
      2          8           0        0.000000    0.000000    3.405070
      3          8           0        0.000000    0.000000   -3.405070
      4          8           0        0.000000    0.000000   -2.052690
 ---------------------------------------------------------------------

 SCF Done:  E(UHF) =  -298.772579686     A.U. after   16 cycles
 E2 =    -0.1166100325D+01 EUMP2 =    -0.29993868001070D+03
 CCSD(T)
 CCSD(T)= -0.29992379456D+03

 Unable to determine electronic state:  an orbital has unidentified symmetry.
 Alpha  occ. eigenvalues --  -20.24199 -20.24198 -20.20304 -20.20304  -1.11172
 Alpha  occ. eigenvalues --   -1.11168  -0.75005  -0.74947  -0.29815  -0.29800
 Alpha  occ. eigenvalues --   -0.27117  -0.27102  -0.25025  -0.24360  -0.09153
 Alpha  occ. eigenvalues --   -0.09130  -0.06641  -0.06613   0.42673
 Alpha virt. eigenvalues --    0.55659   1.04172   1.10394   1.11029   1.11376
 Alpha virt. eigenvalues --    1.12398   1.12689   1.13822   1.19635   1.20364
 Alpha virt. eigenvalues --    1.20811   1.21599   1.21935   1.34060   1.34088

  Beta  occ. eigenvalues --  -20.18403 -20.18403 -20.15275 -20.15275  -0.95042
  Beta  occ. eigenvalues --   -0.95032  -0.56035  -0.55926  -0.15956  -0.15752
  Beta  occ. eigenvalues --   -0.10196  -0.09813  -0.02996  -0.02977   0.24644
  Beta virt. eigenvalues --    0.34649   0.53768   0.53898   0.76741   0.80558
  Beta virt. eigenvalues --    1.12996   1.17332   1.18367   1.18586   1.18857
  Beta virt. eigenvalues --    1.20646   1.20806   1.25584   1.27633   1.28333

 Mulliken charges and spin densities:
               1          2
     1  O   -0.381910   1.114950
     2  O   -0.618090   0.885050
     3  O   -0.618090   0.885050
     4  O   -0.381910   1.114950
 Sum of Mulliken charges =  -2.00000   4.00000

 Dipole moment (field-independent basis, Debye):
    X=             -0.0000    Y=             -0.0000    Z=              0.0000  Tot=              0.0000
 Quadrupole moment (field-independent basis, Debye-Ang):
   XX=            -25.1519   YY=            -23.9905   ZZ=           -113.1141
   XY=             -0.0000   XZ=              0.0000   YZ=             -0.0000

 Normal termination of Gaussian 16 at Sat Jan  7 07:06:27 2023.
