 Gaussian 16, Revision A.03,
 Gaussian 16:  ES64L-G16RevA.03 25-Dec-2016

 ------------------------------------------------
 #p CCSD(T,MaxCyc=300)/cc-pVTZ Guess=Read SCF=XQC
 ------------------------------------------------

 ---------
 O2_O2_247
 ---------
 Symbolic Z-matrix:
 Charge = -2 Multiplicity = 5

                         Standard orientation:
 ---------------------------------------------------------------------
 Center     Atomic      Atomic             Coordinates (Angstroms)
 Number     Number       Type             X           Y           Z
 ---------------------------------------------------------------------
      1          8           0        0.000000    0.000000    2.541161
      2          8           0        0.000000    0.000000    3.893541
      3          8           0        0.000000    0.000000   -3.893541
      4          8           0        0.000000    0.000000   -2.541161
 ---------------------------------------------------------------------

 SCF Done:  E(UHF) =  -298.769343366     A.U. after    9 cycles
 E2 =    -0.1245004984D+01 EUMP2 =    -0.30001434835041D+03
 CCSD(T)
 CCSD(T)= -0.29994494791D+03

 Unable to determine electronic state:  an orbital has unidentified symmetry.
 Alpha  occ. eigenvalues --  -20.24801 -20.24801 -20.21734 -20.21734  -1.12396
 Alpha  occ. eigenvalues --   -1.12395  -0.76354  -0.76341  -0.30924  -0.30922
 Alpha  occ. eigenvalues --   -0.28255  -0.28254  -0.26523  -0.26238  -0.10410
 Alpha  occ. eigenvalues --   -0.10409  -0.07874  -0.07872   0.42717
 Alpha virt. eigenvalues --    0.51707   1.06099   1.06964   1.09897   1.09920
 Alpha virt. eigenvalues --    1.11253   1.11272   1.14259   1.15080   1.18580
 Alpha virt. eigenvalues --    1.18634   1.19773   1.19831   1.32814   1.32818

  Beta  occ. eigenvalues --  -20.18947 -20.18947 -20.16595 -20.16595  -0.96036
  Beta  occ. eigenvalues --   -0.96033  -0.57167  -0.57131  -0.17025  -0.17004
  Beta  occ. eigenvalues --   -0.11279  -0.11063  -0.04105  -0.04103   0.24314
  Beta virt. eigenvalues --    0.32608   0.52525   0.52533   0.77015   0.77497
  Beta virt. eigenvalues --    1.14861   1.15422   1.17459   1.17475   1.18019
  Beta virt. eigenvalues --    1.18533   1.19524   1.19533   1.26603   1.26637

 Mulliken charges and spin densities:
               1          2
     1  O   -0.401233   1.099070
     2  O   -0.598767   0.900930
     3  O   -0.598767   0.900930
     4  O   -0.401233   1.099070
 Sum of Mulliken charges =  -2.00000   4.00000

 Dipole moment (field-independent basis, Debye):
    X=             -0.0000    Y=              0.0000    Z=             -0.0000  Tot=              0.0000
 Quadrupole moment (field-independent basis, Debye-Ang):
   XX=            -25.1331   YY=            -23.9683   ZZ=           -141.3589
   XY=             -0.0000   XZ=              0.0000   YZ=             -0.0000

 Normal termination of Gaussian 16 at Sat Jan  7 08:53:00 2023.
