 Gaussian 16, Revision A.03,
 Gaussian 16:  ES64L-G16RevA.03 25-Dec-2016

 ------------------------------------------------
 #p CCSD(T,MaxCyc=300)/cc-pVTZ Guess=Read SCF=XQC
 ------------------------------------------------

 --------
 O2_O2_92
 --------
 Symbolic Z-matrix:
 Charge = -2 Multiplicity = 5

                         Standard orientation:
 ---------------------------------------------------------------------
 Center     Atomic      Atomic             Coordinates (Angstroms)
 Number     Number       Type             X           Y           Z
 ---------------------------------------------------------------------
      1          8           0        0.000000    0.000000    1.443871
      2          8           0        0.000000    0.000000    2.796251
      3          8           0        0.000000    0.000000   -2.796251
      4          8           0        0.000000    0.000000   -1.443871
 ---------------------------------------------------------------------

 SCF Done:  E(UHF) =  -298.782226269     A.U. after   16 cycles
 E2 =    -0.1079867497D+01 EUMP2 =    -0.29986209376506D+03
 CCSD(T)
 CCSD(T)= -0.29988819947D+03

 Unable to determine electronic state:  an orbital has unidentified symmetry.
 Alpha  occ. eigenvalues --  -20.21570 -20.21569 -20.17236 -20.17236  -1.08325
 Alpha  occ. eigenvalues --   -1.08222  -0.72245  -0.71607  -0.26779  -0.26551
 Alpha  occ. eigenvalues --   -0.24446  -0.24193  -0.22743  -0.19737  -0.06621
 Alpha  occ. eigenvalues --   -0.06237  -0.03799  -0.03411   0.41802
 Alpha virt. eigenvalues --    0.64023   1.09831   1.10942   1.12149   1.13317
 Alpha virt. eigenvalues --    1.13510   1.14919   1.16362   1.19554   1.20977
 Alpha virt. eigenvalues --    1.28272   1.29446   1.36532   1.37004   1.61350

  Beta  occ. eigenvalues --  -20.15838 -20.15836 -20.12082 -20.12082  -0.92141
  Beta  occ. eigenvalues --   -0.91985  -0.53323  -0.52326  -0.13665  -0.11643
  Beta  occ. eigenvalues --   -0.07641  -0.06690   0.00238   0.00585   0.25345
  Beta virt. eigenvalues --    0.40929   0.55953   0.57349   0.80020   0.86310
  Beta virt. eigenvalues --    1.16313   1.18449   1.20305   1.20491   1.22002
  Beta virt. eigenvalues --    1.22218   1.24571   1.27650   1.30832   1.36517

 Mulliken charges and spin densities:
               1          2
     1  O   -0.372716   1.072212
     2  O   -0.627284   0.927788
     3  O   -0.627284   0.927788
     4  O   -0.372716   1.072212
 Sum of Mulliken charges =  -2.00000   4.00000

 Dipole moment (field-independent basis, Debye):
    X=             -0.0000    Y=              0.0000    Z=             -0.0000  Tot=              0.0000
 Quadrupole moment (field-independent basis, Debye-Ang):
   XX=            -25.2164   YY=            -24.0370   ZZ=            -82.6767
   XY=             -0.0000   XZ=              0.0000   YZ=             -0.0000

 Normal termination of Gaussian 16 at Sat Jan  7 05:00:08 2023.
