 Gaussian 16, Revision A.03,
 Gaussian 16:  ES64L-G16RevA.03 25-Dec-2016

 ------------------------------------------------
 #p CCSD(T,MaxCyc=300)/cc-pVTZ Guess=Read SCF=XQC
 ------------------------------------------------

 ---------
 O2_O2_288
 ---------
 Symbolic Z-matrix:
 Charge = -2 Multiplicity = 5

                         Standard orientation:
 ---------------------------------------------------------------------
 Center     Atomic      Atomic             Coordinates (Angstroms)
 Number     Number       Type             X           Y           Z
 ---------------------------------------------------------------------
      1          8           0        0.000000    0.000000    2.831412
      2          8           0        0.000000    0.000000    4.183792
      3          8           0        0.000000    0.000000   -4.183792
      4          8           0        0.000000    0.000000   -2.831412
 ---------------------------------------------------------------------

 SCF Done:  E(UHF) =  -298.771751845     A.U. after    9 cycles
 E2 =    -0.1280870746D+01 EUMP2 =    -0.30005262259182D+03
 CCSD(T)
 CCSD(T)= -0.29995444875D+03

 Unable to determine electronic state:  an orbital has unidentified symmetry.
 Alpha  occ. eigenvalues --  -20.25328 -20.25327 -20.22531 -20.22531  -1.13061
 Alpha  occ. eigenvalues --   -1.13061  -0.77053  -0.77046  -0.31566  -0.31566
 Alpha  occ. eigenvalues --   -0.28912  -0.28912  -0.27213  -0.27009  -0.11113
 Alpha  occ. eigenvalues --   -0.11112  -0.08561  -0.08561   0.42448
 Alpha virt. eigenvalues --    0.50426   1.05661   1.05824   1.09236   1.09242
 Alpha virt. eigenvalues --    1.10594   1.10599   1.13723   1.14027   1.17907
 Alpha virt. eigenvalues --    1.17926   1.19100   1.19119   1.32157   1.32159

  Beta  occ. eigenvalues --  -20.19497 -20.19496 -20.17352 -20.17352  -0.96687
  Beta  occ. eigenvalues --   -0.96686  -0.57839  -0.57814  -0.17702  -0.17697
  Beta  occ. eigenvalues --   -0.11928  -0.11764  -0.04742  -0.04741   0.24012
  Beta virt. eigenvalues --    0.31577   0.51827   0.51828   0.76465   0.76546
  Beta virt. eigenvalues --    1.14382   1.14482   1.16796   1.16799   1.17427
  Beta virt. eigenvalues --    1.17495   1.18879   1.18880   1.25935   1.25939

 Mulliken charges and spin densities:
               1          2
     1  O   -0.410971   1.091472
     2  O   -0.589029   0.908528
     3  O   -0.589029   0.908528
     4  O   -0.410971   1.091472
 Sum of Mulliken charges =  -2.00000   4.00000

 Dipole moment (field-independent basis, Debye):
    X=             -0.0000    Y=              0.0000    Z=              0.0000  Tot=              0.0000
 Quadrupole moment (field-independent basis, Debye-Ang):
   XX=            -25.1289   YY=            -23.9647   ZZ=           -159.9478
   XY=             -0.0000   XZ=              0.0000   YZ=             -0.0000

 Normal termination of Gaussian 16 at Sat Jan  7 09:57:49 2023.
