 Gaussian 16, Revision A.03,
 Gaussian 16:  ES64L-G16RevA.03 25-Dec-2016

 ------------------------------------------------
 #p CCSD(T,MaxCyc=300)/cc-pVTZ Guess=Read SCF=XQC
 ------------------------------------------------

 ---------
 O2_O2_107
 ---------
 Symbolic Z-matrix:
 Charge = -2 Multiplicity = 5

                         Standard orientation:
 ---------------------------------------------------------------------
 Center     Atomic      Atomic             Coordinates (Angstroms)
 Number     Number       Type             X           Y           Z
 ---------------------------------------------------------------------
      1          8           0        0.000000    0.000000    1.550060
      2          8           0        0.000000    0.000000    2.902440
      3          8           0        0.000000    0.000000   -2.902440
      4          8           0        0.000000    0.000000   -1.550060
 ---------------------------------------------------------------------

 SCF Done:  E(UHF) =  -298.783244823     A.U. after   16 cycles
 E2 =    -0.1090435335D+01 EUMP2 =    -0.29987368015745D+03
 CCSD(T)
 CCSD(T)= -0.29989552622D+03

 Unable to determine electronic state:  an orbital has unidentified symmetry.
 Alpha  occ. eigenvalues --  -20.22800 -20.22799 -20.17902 -20.17901  -1.09095
 Alpha  occ. eigenvalues --   -1.09034  -0.72881  -0.72476  -0.27716  -0.27564
 Alpha  occ. eigenvalues --   -0.25221  -0.25064  -0.23071  -0.20811  -0.07247
 Alpha  occ. eigenvalues --   -0.07018  -0.04557  -0.04306   0.41743
 Alpha virt. eigenvalues --    0.62674   1.05511   1.11272   1.11857   1.13191
 Alpha virt. eigenvalues --    1.13504   1.14227   1.15510   1.19687   1.20915
 Alpha virt. eigenvalues --    1.25868   1.27175   1.35925   1.36277   1.52190

  Beta  occ. eigenvalues --  -20.17072 -20.17071 -20.12866 -20.12866  -0.93105
  Beta  occ. eigenvalues --   -0.93014  -0.54055  -0.53417  -0.14291  -0.12948
  Beta  occ. eigenvalues --   -0.08291  -0.07461  -0.00674  -0.00484   0.25079
  Beta virt. eigenvalues --    0.38939   0.55411   0.56437   0.78558   0.85099
  Beta virt. eigenvalues --    1.13223   1.18321   1.19705   1.19810   1.21384
  Beta virt. eigenvalues --    1.21958   1.23473   1.27697   1.30623   1.34015

 Mulliken charges and spin densities:
               1          2
     1  O   -0.365241   1.106364
     2  O   -0.634759   0.893636
     3  O   -0.634759   0.893636
     4  O   -0.365241   1.106364
 Sum of Mulliken charges =  -2.00000   4.00000

 Dipole moment (field-independent basis, Debye):
    X=             -0.0000    Y=              0.0000    Z=              0.0000  Tot=              0.0000
 Quadrupole moment (field-independent basis, Debye-Ang):
   XX=            -25.1994   YY=            -24.0330   ZZ=            -87.5693
   XY=             -0.0000   XZ=              0.0000   YZ=             -0.0000

 Normal termination of Gaussian 16 at Sat Jan  7 05:20:39 2023.
