 Gaussian 16, Revision A.03,
 Gaussian 16:  ES64L-G16RevA.03 25-Dec-2016

 ------------------------------------------------
 #p CCSD(T,MaxCyc=300)/cc-pVTZ Guess=Read SCF=XQC
 ------------------------------------------------

 ---------
 O2_O2_179
 ---------
 Symbolic Z-matrix:
 Charge = -2 Multiplicity = 5

                         Standard orientation:
 ---------------------------------------------------------------------
 Center     Atomic      Atomic             Coordinates (Angstroms)
 Number     Number       Type             X           Y           Z
 ---------------------------------------------------------------------
      1          8           0        0.000000    0.000000    2.059769
      2          8           0        0.000000    0.000000    3.412149
      3          8           0        0.000000    0.000000   -3.412149
      4          8           0        0.000000    0.000000   -2.059769
 ---------------------------------------------------------------------

 SCF Done:  E(UHF) =  -298.772405948     A.U. after   16 cycles
 E2 =    -0.1167439093D+01 EUMP2 =    -0.29993984504174D+03
 CCSD(T)
 CCSD(T)= -0.29992414851D+03

 Unable to determine electronic state:  an orbital has unidentified symmetry.
 Alpha  occ. eigenvalues --  -20.24202 -20.24201 -20.20326 -20.20326  -1.11191
 Alpha  occ. eigenvalues --   -1.11186  -0.75026  -0.74970  -0.29830  -0.29816
 Alpha  occ. eigenvalues --   -0.27133  -0.27119  -0.25051  -0.24396  -0.09171
 Alpha  occ. eigenvalues --   -0.09149  -0.06659  -0.06632   0.42683
 Alpha virt. eigenvalues --    0.55575   1.04239   1.10352   1.11015   1.11350
 Alpha virt. eigenvalues --    1.12383   1.12664   1.13841   1.19625   1.20328
 Alpha virt. eigenvalues --    1.20801   1.21562   1.21714   1.34041   1.34067

  Beta  occ. eigenvalues --  -20.18404 -20.18403 -20.15295 -20.15295  -0.95054
  Beta  occ. eigenvalues --   -0.95044  -0.56050  -0.55943  -0.15969  -0.15771
  Beta  occ. eigenvalues --   -0.10210  -0.09831  -0.03011  -0.02993   0.24642
  Beta virt. eigenvalues --    0.34616   0.53750   0.53876   0.76758   0.80500
  Beta virt. eigenvalues --    1.13067   1.17312   1.18361   1.18572   1.18833
  Beta virt. eigenvalues --    1.20631   1.20785   1.25369   1.27623   1.28298

 Mulliken charges and spin densities:
               1          2
     1  O   -0.382216   1.114641
     2  O   -0.617784   0.885359
     3  O   -0.617784   0.885359
     4  O   -0.382216   1.114641
 Sum of Mulliken charges =  -2.00000   4.00000

 Dipole moment (field-independent basis, Debye):
    X=             -0.0000    Y=              0.0000    Z=             -0.0000  Tot=              0.0000
 Quadrupole moment (field-independent basis, Debye-Ang):
   XX=            -25.1515   YY=            -23.9900   ZZ=           -113.5028
   XY=             -0.0000   XZ=              0.0000   YZ=             -0.0000

 Normal termination of Gaussian 16 at Sat Jan  7 07:08:00 2023.
