 Gaussian 16, Revision A.03,
 Gaussian 16:  ES64L-G16RevA.03 25-Dec-2016

 ------------------------------------------------
 #p CCSD(T,MaxCyc=300)/cc-pVTZ Guess=Read SCF=XQC
 ------------------------------------------------

 ---------
 O2_O2_289
 ---------
 Symbolic Z-matrix:
 Charge = -2 Multiplicity = 5

                         Standard orientation:
 ---------------------------------------------------------------------
 Center     Atomic      Atomic             Coordinates (Angstroms)
 Number     Number       Type             X           Y           Z
 ---------------------------------------------------------------------
      1          8           0        0.000000    0.000000    2.838490
      2          8           0        0.000000    0.000000    4.190871
      3          8           0        0.000000    0.000000   -4.190871
      4          8           0        0.000000    0.000000   -2.838490
 ---------------------------------------------------------------------

 SCF Done:  E(UHF) =  -298.771818893     A.U. after   14 cycles
 E2 =    -0.1281696623D+01 EUMP2 =    -0.30005351551662D+03
 CCSD(T)
 CCSD(T)= -0.29995465827D+03

 Unable to determine electronic state:  an orbital has unidentified symmetry.
 Alpha  occ. eigenvalues --  -20.25340 -20.25340 -20.22549 -20.22549  -1.13076
 Alpha  occ. eigenvalues --   -1.13076  -0.77069  -0.77062  -0.31581  -0.31581
 Alpha  occ. eigenvalues --   -0.28927  -0.28927  -0.27229  -0.27026  -0.11129
 Alpha  occ. eigenvalues --   -0.11129  -0.08577  -0.08577   0.42441
 Alpha virt. eigenvalues --    0.50399   1.05647   1.05803   1.09221   1.09227
 Alpha virt. eigenvalues --    1.10579   1.10584   1.13709   1.14007   1.17892
 Alpha virt. eigenvalues --    1.17910   1.19085   1.19104   1.32142   1.32144

  Beta  occ. eigenvalues --  -20.19510 -20.19510 -20.17370 -20.17369  -0.96702
  Beta  occ. eigenvalues --   -0.96701  -0.57855  -0.57830  -0.17717  -0.17713
  Beta  occ. eigenvalues --   -0.11943  -0.11780  -0.04756  -0.04756   0.24005
  Beta virt. eigenvalues --    0.31554   0.51811   0.51812   0.76450   0.76527
  Beta virt. eigenvalues --    1.14367   1.14463   1.16780   1.16783   1.17411
  Beta virt. eigenvalues --    1.17476   1.18864   1.18865   1.25919   1.25923

 Mulliken charges and spin densities:
               1          2
     1  O   -0.411198   1.091284
     2  O   -0.588802   0.908716
     3  O   -0.588802   0.908716
     4  O   -0.411198   1.091284
 Sum of Mulliken charges =  -2.00000   4.00000

 Dipole moment (field-independent basis, Debye):
    X=             -0.0000    Y=             -0.0000    Z=              0.0000  Tot=              0.0000
 Quadrupole moment (field-independent basis, Debye-Ang):
   XX=            -25.1289   YY=            -23.9647   ZZ=           -160.4200
   XY=             -0.0000   XZ=              0.0000   YZ=             -0.0000

 Normal termination of Gaussian 16 at Sat Jan  7 09:59:15 2023.
