 Gaussian 16, Revision A.03,
 Gaussian 16:  ES64L-G16RevA.03 25-Dec-2016

 ------------------------------------------------
 #p CCSD(T,MaxCyc=300)/cc-pVTZ Guess=Read SCF=XQC
 ------------------------------------------------

 --------
 O2_O2_41
 --------
 Symbolic Z-matrix:
 Charge = -2 Multiplicity = 5

                         Standard orientation:
 ---------------------------------------------------------------------
 Center     Atomic      Atomic             Coordinates (Angstroms)
 Number     Number       Type             X           Y           Z
 ---------------------------------------------------------------------
      1          8           0        0.000000    0.000000    1.082827
      2          8           0        0.000000    0.000000    2.435207
      3          8           0        0.000000    0.000000   -2.435207
      4          8           0        0.000000    0.000000   -1.082827
 ---------------------------------------------------------------------

 SCF Done:  E(UHF) =  -298.776209603     A.U. after   14 cycles
 E2 =    -0.1031996474D+01 EUMP2 =    -0.29980820607703D+03
 CCSD(T)
 CCSD(T)= -0.29985175474D+03

 Unable to determine electronic state:  an orbital has unidentified symmetry.
 Alpha  occ. eigenvalues --  -20.16752 -20.16747 -20.13899 -20.13899  -1.05685
 Alpha  occ. eigenvalues --   -1.04977  -0.70737  -0.67413  -0.23801  -0.22924
 Alpha  occ. eigenvalues --   -0.22812  -0.21776  -0.20468  -0.14127  -0.04120
 Alpha  occ. eigenvalues --   -0.02051  -0.01180   0.00530   0.41861
 Alpha virt. eigenvalues --    0.70404   1.10135   1.12891   1.14199   1.14881
 Alpha virt. eigenvalues --    1.17222   1.19286   1.20643   1.22666   1.36473
 Alpha virt. eigenvalues --    1.37783   1.38284   1.38422   1.40021   1.85937

  Beta  occ. eigenvalues --  -20.10976 -20.10973 -20.08392 -20.08392  -0.88611
  Beta  occ. eigenvalues --   -0.87618  -0.52169  -0.47220  -0.12783  -0.05439
  Beta  occ. eigenvalues --   -0.04733  -0.03675   0.02213   0.04405   0.25350
  Beta virt. eigenvalues --    0.49870   0.58092   0.61869   0.85080   0.91107
  Beta virt. eigenvalues --    1.20067   1.20489   1.23023   1.23774   1.24347
  Beta virt. eigenvalues --    1.28560   1.29451   1.33477   1.39435   1.40131

 Mulliken charges and spin densities:
               1          2
     1  O   -0.364119   0.957912
     2  O   -0.635881   1.042088
     3  O   -0.635881   1.042088
     4  O   -0.364119   0.957912
 Sum of Mulliken charges =  -2.00000   4.00000

 Dipole moment (field-independent basis, Debye):
    X=             -0.0000    Y=              0.0000    Z=              0.0000  Tot=              0.0000
 Quadrupole moment (field-independent basis, Debye-Ang):
   XX=            -25.2982   YY=            -24.0123   ZZ=            -69.8697
   XY=             -0.0000   XZ=              0.0000   YZ=             -0.0000

 216\PMP3-0=-299.7732244\MP4SDQ=-299.7807211\CCSD=-299.7790231\CCSD(T)=
 Normal termination of Gaussian 16 at Sat Jan  7 03:49:47 2023.
