 Gaussian 16, Revision A.03,
 Gaussian 16:  ES64L-G16RevA.03 25-Dec-2016

 ------------------------------------------------
 #p CCSD(T,MaxCyc=300)/cc-pVTZ Guess=Read SCF=XQC
 ------------------------------------------------

 ---------
 O2_O2_177
 ---------
 Symbolic Z-matrix:
 Charge = -2 Multiplicity = 5

                         Standard orientation:
 ---------------------------------------------------------------------
 Center     Atomic      Atomic             Coordinates (Angstroms)
 Number     Number       Type             X           Y           Z
 ---------------------------------------------------------------------
      1          8           0        0.000000    0.000000    2.045610
      2          8           0        0.000000    0.000000    3.397990
      3          8           0        0.000000    0.000000   -3.397990
      4          8           0        0.000000    0.000000   -2.045610
 ---------------------------------------------------------------------

 SCF Done:  E(UHF) =  -298.772757443     A.U. after   16 cycles
 E2 =    -0.1164758775D+01 EUMP2 =    -0.29993751621775D+03
 CCSD(T)
 CCSD(T)= -0.29992343943D+03

 Unable to determine electronic state:  an orbital has unidentified symmetry.
 Alpha  occ. eigenvalues --  -20.24196 -20.24195 -20.20282 -20.20282  -1.11154
 Alpha  occ. eigenvalues --   -1.11149  -0.74983  -0.74925  -0.29799  -0.29783
 Alpha  occ. eigenvalues --   -0.27101  -0.27086  -0.24999  -0.24324  -0.09134
 Alpha  occ. eigenvalues --   -0.09110  -0.06623  -0.06593   0.42662
 Alpha virt. eigenvalues --    0.55745   1.04104   1.10435   1.11043   1.11403
 Alpha virt. eigenvalues --    1.12413   1.12715   1.13804   1.19646   1.20401
 Alpha virt. eigenvalues --    1.20820   1.21637   1.22162   1.34079   1.34108

  Beta  occ. eigenvalues --  -20.18402 -20.18402 -20.15256 -20.15256  -0.95030
  Beta  occ. eigenvalues --   -0.95020  -0.56019  -0.55908  -0.15942  -0.15732
  Beta  occ. eigenvalues --   -0.10181  -0.09794  -0.02980  -0.02961   0.24645
  Beta virt. eigenvalues --    0.34683   0.53786   0.53921   0.76723   0.80616
  Beta virt. eigenvalues --    1.12926   1.17352   1.18373   1.18601   1.18881
  Beta virt. eigenvalues --    1.20661   1.20827   1.25804   1.27642   1.28370

 Mulliken charges and spin densities:
               1          2
     1  O   -0.381604   1.115264
     2  O   -0.618396   0.884736
     3  O   -0.618396   0.884736
     4  O   -0.381604   1.115264
 Sum of Mulliken charges =  -2.00000   4.00000

 Dipole moment (field-independent basis, Debye):
    X=             -0.0000    Y=              0.0000    Z=              0.0000  Tot=              0.0000
 Quadrupole moment (field-independent basis, Debye-Ang):
   XX=            -25.1524   YY=            -23.9911   ZZ=           -112.7258
   XY=             -0.0000   XZ=              0.0000   YZ=             -0.0000

 Normal termination of Gaussian 16 at Sat Jan  7 07:04:53 2023.
