 Gaussian 16, Revision A.03,
 Gaussian 16:  ES64L-G16RevA.03 25-Dec-2016

 ------------------------------------------------
 #p CCSD(T,MaxCyc=300)/cc-pVTZ Guess=Read SCF=XQC
 ------------------------------------------------

 ---------
 O2_O2_225
 ---------
 Symbolic Z-matrix:
 Charge = -2 Multiplicity = 5

                         Standard orientation:
 ---------------------------------------------------------------------
 Center     Atomic      Atomic             Coordinates (Angstroms)
 Number     Number       Type             X           Y           Z
 ---------------------------------------------------------------------
      1          8           0        0.000000    0.000000    2.385416
      2          8           0        0.000000    0.000000    3.737796
      3          8           0        0.000000    0.000000   -3.737796
      4          8           0        0.000000    0.000000   -2.385416
 ---------------------------------------------------------------------

 SCF Done:  E(UHF) =  -298.768813186     A.U. after   10 cycles
 E2 =    -0.1223046073D+01 EUMP2 =    -0.29999185925918D+03
 CCSD(T)
 CCSD(T)= -0.29993896569D+03

 Unable to determine electronic state:  an orbital has unidentified symmetry.
 Alpha  occ. eigenvalues --  -20.24537 -20.24537 -20.21282 -20.21282  -1.12012
 Alpha  occ. eigenvalues --   -1.12011  -0.75945  -0.75925  -0.30561  -0.30559
 Alpha  occ. eigenvalues --   -0.27885  -0.27883  -0.26099  -0.25743  -0.10011
 Alpha  occ. eigenvalues --   -0.10007  -0.07482  -0.07477   0.42814
 Alpha virt. eigenvalues --    0.52629   1.06040   1.07924   1.10273   1.10329
 Alpha virt. eigenvalues --    1.11630   1.11676   1.14369   1.16063   1.18957
 Alpha virt. eigenvalues --    1.19078   1.20149   1.20280   1.33198   1.33203

  Beta  occ. eigenvalues --  -20.18682 -20.18682 -20.16171 -20.16171  -0.95684
  Beta  occ. eigenvalues --   -0.95680  -0.56792  -0.56745  -0.16654  -0.16609
  Beta  occ. eigenvalues --   -0.10918  -0.10664  -0.03744  -0.03741   0.24460
  Beta virt. eigenvalues --    0.33218   0.52923   0.52944   0.77163   0.78234
  Beta virt. eigenvalues --    1.14861   1.16077   1.17834   1.17876   1.18210
  Beta virt. eigenvalues --    1.19563   1.19891   1.19914   1.26975   1.27073

 Mulliken charges and spin densities:
               1          2
     1  O   -0.395413   1.103455
     2  O   -0.604587   0.896545
     3  O   -0.604587   0.896545
     4  O   -0.395413   1.103455
 Sum of Mulliken charges =  -2.00000   4.00000

 Dipole moment (field-independent basis, Debye):
    X=             -0.0000    Y=              0.0000    Z=              0.0000  Tot=              0.0000
 Quadrupole moment (field-independent basis, Debye-Ang):
   XX=            -25.1369   YY=            -23.9724   ZZ=           -131.9929
   XY=             -0.0000   XZ=              0.0000   YZ=             -0.0000

 Normal termination of Gaussian 16 at Sat Jan  7 08:19:03 2023.
