 Gaussian 16, Revision A.03,
 Gaussian 16:  ES64L-G16RevA.03 25-Dec-2016

 ------------------------------------------------
 #p CCSD(T,MaxCyc=300)/cc-pVTZ Guess=Read SCF=XQC
 ------------------------------------------------

 --------
 O2_O2_14
 --------
 Symbolic Z-matrix:
 Charge = -2 Multiplicity = 5

                         Standard orientation:
 ---------------------------------------------------------------------
 Center     Atomic      Atomic             Coordinates (Angstroms)
 Number     Number       Type             X           Y           Z
 ---------------------------------------------------------------------
      1          8           0        0.000000    0.000000    0.891685
      2          8           0        0.000000    0.000000    2.244066
      3          8           0        0.000000    0.000000   -2.244066
      4          8           0        0.000000    0.000000   -0.891685
 ---------------------------------------------------------------------

 SCF Done:  E(UHF) =  -298.752139025     A.U. after   14 cycles
 E2 =    -0.9976920117D+00 EUMP2 =    -0.29974983103657D+03
 CCSD(T)
 CCSD(T)= -0.29980198032D+03

 Unable to determine electronic state:  an orbital has unidentified symmetry.
 Alpha  occ. eigenvalues --  -20.13349 -20.13338 -20.11159 -20.11159  -1.04598
 Alpha  occ. eigenvalues --   -1.02499  -0.71838  -0.63445  -0.24632  -0.22469
 Alpha  occ. eigenvalues --   -0.20788  -0.20224  -0.17516  -0.08139  -0.03206
 Alpha  occ. eigenvalues --    0.00016   0.01824   0.03853   0.40738
 Alpha virt. eigenvalues --    0.78238   1.10014   1.12238   1.16757   1.17649
 Alpha virt. eigenvalues --    1.18609   1.21042   1.23551   1.25375   1.38628
 Alpha virt. eigenvalues --    1.39370   1.42363   1.42737   1.51911   1.93449

  Beta  occ. eigenvalues --  -20.07746 -20.07739 -20.05394 -20.05394  -0.87356
  Beta  occ. eigenvalues --   -0.84377  -0.54410  -0.42721  -0.13528  -0.04341
  Beta  occ. eigenvalues --   -0.01451   0.01651   0.02805   0.07413   0.23713
  Beta virt. eigenvalues --    0.56636   0.59374   0.65432   0.87551   0.94613
  Beta virt. eigenvalues --    1.20713   1.22458   1.25120   1.25944   1.26215
  Beta virt. eigenvalues --    1.31110   1.33241   1.36684   1.40785   1.41489

 Mulliken charges and spin densities:
               1          2
     1  O   -0.345683   0.879139
     2  O   -0.654317   1.120861
     3  O   -0.654317   1.120861
     4  O   -0.345683   0.879139
 Sum of Mulliken charges =  -2.00000   4.00000

 Dipole moment (field-independent basis, Debye):
    X=             -0.0000    Y=              0.0000    Z=              0.0000  Tot=              0.0000
 Quadrupole moment (field-independent basis, Debye-Ang):
   XX=            -25.2529   YY=            -23.9040   ZZ=            -64.8360
   XY=             -0.0000   XZ=              0.0000   YZ=             -0.0000

 Normal termination of Gaussian 16 at Sat Jan  7 03:13:07 2023.
