 Gaussian 16, Revision A.03,
 Gaussian 16:  ES64L-G16RevA.03 25-Dec-2016

 ------------------------------------------------
 #p CCSD(T,MaxCyc=300)/cc-pVTZ Guess=Read SCF=XQC
 ------------------------------------------------

 --------
 O2_O2_82
 --------
 Symbolic Z-matrix:
 Charge = -2 Multiplicity = 5

                         Standard orientation:
 ---------------------------------------------------------------------
 Center     Atomic      Atomic             Coordinates (Angstroms)
 Number     Number       Type             X           Y           Z
 ---------------------------------------------------------------------
      1          8           0        0.000000    0.000000    1.373078
      2          8           0        0.000000    0.000000    2.725458
      3          8           0        0.000000    0.000000   -2.725458
      4          8           0        0.000000    0.000000   -1.373078
 ---------------------------------------------------------------------

 SCF Done:  E(UHF) =  -298.781318633     A.U. after   14 cycles
 E2 =    -0.1071932657D+01 EUMP2 =    -0.29985325128957D+03
 CCSD(T)
 CCSD(T)= -0.29988282165D+03

 Unable to determine electronic state:  an orbital has unidentified symmetry.
 Alpha  occ. eigenvalues --  -20.20659 -20.20657 -20.16707 -20.16707  -1.07789
 Alpha  occ. eigenvalues --   -1.07641  -0.71818  -0.70947  -0.26153  -0.25851
 Alpha  occ. eigenvalues --   -0.23893  -0.23546  -0.22585  -0.18924  -0.06130
 Alpha  occ. eigenvalues --   -0.05589  -0.03266  -0.02747   0.41877
 Alpha virt. eigenvalues --    0.64953   1.10719   1.12360   1.13405   1.13453
 Alpha virt. eigenvalues --    1.13782   1.15365   1.16935   1.19528   1.21095
 Alpha virt. eigenvalues --    1.30076   1.31139   1.36931   1.37500   1.67256

  Beta  occ. eigenvalues --  -20.14918 -20.14917 -20.11477 -20.11477  -0.91438
  Beta  occ. eigenvalues --   -0.91216  -0.52862  -0.51508  -0.13283  -0.10624
  Beta  occ. eigenvalues --   -0.07208  -0.06160   0.00770   0.01280   0.25526
  Beta virt. eigenvalues --    0.42430   0.56372   0.58076   0.81059   0.87167
  Beta virt. eigenvalues --    1.18343   1.18591   1.20684   1.21937   1.22353
  Beta virt. eigenvalues --    1.22427   1.25340   1.27687   1.31094   1.38359

 Mulliken charges and spin densities:
               1          2
     1  O   -0.375713   1.048693
     2  O   -0.624287   0.951307
     3  O   -0.624287   0.951307
     4  O   -0.375713   1.048693
 Sum of Mulliken charges =  -2.00000   4.00000

 Dipole moment (field-independent basis, Debye):
    X=             -0.0000    Y=              0.0000    Z=             -0.0000  Tot=              0.0000
 Quadrupole moment (field-independent basis, Debye-Ang):
   XX=            -25.2306   YY=            -24.0353   ZZ=            -79.7283
   XY=             -0.0000   XZ=              0.0000   YZ=             -0.0000

 Normal termination of Gaussian 16 at Sat Jan  7 04:46:27 2023.
