 Gaussian 16, Revision A.03,
 Gaussian 16:  ES64L-G16RevA.03 25-Dec-2016

 ------------------------------------------------
 #p CCSD(T,MaxCyc=300)/cc-pVTZ Guess=Read SCF=XQC
 ------------------------------------------------

 ---------
 O2_O2_146
 ---------
 Symbolic Z-matrix:
 Charge = -2 Multiplicity = 5

                         Standard orientation:
 ---------------------------------------------------------------------
 Center     Atomic      Atomic             Coordinates (Angstroms)
 Number     Number       Type             X           Y           Z
 ---------------------------------------------------------------------
      1          8           0        0.000000    0.000000    1.826152
      2          8           0        0.000000    0.000000    3.178532
      3          8           0        0.000000    0.000000   -3.178532
      4          8           0        0.000000    0.000000   -1.826152
 ---------------------------------------------------------------------

 SCF Done:  E(UHF) =  -298.779431534     A.U. after   16 cycles
 E2 =    -0.1124288043D+01 EUMP2 =    -0.29990371957705D+03
 CCSD(T)
 CCSD(T)= -0.29991190623D+03

 Unable to determine electronic state:  an orbital has unidentified symmetry.
 Alpha  occ. eigenvalues --  -20.24072 -20.24071 -20.19475 -20.19475  -1.10497
 Alpha  occ. eigenvalues --   -1.10481  -0.74230  -0.74095  -0.29234  -0.29189
 Alpha  occ. eigenvalues --   -0.26532  -0.26488  -0.24136  -0.23014  -0.08478
 Alpha  occ. eigenvalues --   -0.08412  -0.05971  -0.05891   0.42182
 Alpha virt. eigenvalues --    0.58785   1.02308   1.11275   1.11424   1.12405
 Alpha virt. eigenvalues --    1.12824   1.13402   1.13663   1.19827   1.20964
 Alpha virt. eigenvalues --    1.21952   1.23246   1.32038   1.34763   1.34836

  Beta  occ. eigenvalues --  -20.18351 -20.18350 -20.14513 -20.14513  -0.94580
  Beta  occ. eigenvalues --   -0.94555  -0.55449  -0.55225  -0.15468  -0.14986
  Beta  occ. eigenvalues --   -0.09638  -0.09102  -0.02388  -0.02337   0.24711
  Beta virt. eigenvalues --    0.35926   0.54385   0.54756   0.76509   0.82479
  Beta virt. eigenvalues --    1.10995   1.17851   1.18706   1.19036   1.19775
  Beta virt. eigenvalues --    1.21149   1.21614   1.27802   1.29924   1.30689

 Mulliken charges and spin densities:
               1          2
     1  O   -0.371350   1.125532
     2  O   -0.628650   0.874468
     3  O   -0.628650   0.874468
     4  O   -0.371350   1.125532
 Sum of Mulliken charges =  -2.00000   4.00000

 Dipole moment (field-independent basis, Debye):
    X=             -0.0000    Y=              0.0000    Z=              0.0000  Tot=              0.0000
 Quadrupole moment (field-independent basis, Debye-Ang):
   XX=            -25.1685   YY=            -24.0085   ZZ=           -101.0074
   XY=             -0.0000   XZ=              0.0000   YZ=             -0.0000

 Normal termination of Gaussian 16 at Sat Jan  7 06:18:26 2023.
