 Gaussian 16, Revision A.03,
 Gaussian 16:  ES64L-G16RevA.03 25-Dec-2016

 ------------------------------------------------
 #p CCSD(T,MaxCyc=300)/cc-pVTZ Guess=Read SCF=XQC
 ------------------------------------------------

 ---------
 O2_O2_240
 ---------
 Symbolic Z-matrix:
 Charge = -2 Multiplicity = 5

                         Standard orientation:
 ---------------------------------------------------------------------
 Center     Atomic      Atomic             Coordinates (Angstroms)
 Number     Number       Type             X           Y           Z
 ---------------------------------------------------------------------
      1          8           0        0.000000    0.000000    2.491606
      2          8           0        0.000000    0.000000    3.843986
      3          8           0        0.000000    0.000000   -3.843986
      4          8           0        0.000000    0.000000   -2.491606
 ---------------------------------------------------------------------

 SCF Done:  E(UHF) =  -298.769080320     A.U. after    9 cycles
 E2 =    -0.1238292140D+01 EUMP2 =    -0.30000737246024D+03
 CCSD(T)
 CCSD(T)= -0.29994311945D+03

 Unable to determine electronic state:  an orbital has unidentified symmetry.
 Alpha  occ. eigenvalues --  -20.24713 -20.24713 -20.21591 -20.21591  -1.12275
 Alpha  occ. eigenvalues --   -1.12274  -0.76226  -0.76212  -0.30809  -0.30807
 Alpha  occ. eigenvalues --   -0.28138  -0.28137  -0.26393  -0.26088  -0.10284
 Alpha  occ. eigenvalues --   -0.10282  -0.07750  -0.07747   0.42754
 Alpha virt. eigenvalues --    0.51977   1.06116   1.07237   1.10016   1.10046
 Alpha virt. eigenvalues --    1.11372   1.11397   1.14316   1.15341   1.18700
 Alpha virt. eigenvalues --    1.18770   1.19893   1.19968   1.32934   1.32939

  Beta  occ. eigenvalues --  -20.18858 -20.18858 -20.16461 -20.16461  -0.95922
  Beta  occ. eigenvalues --   -0.95919  -0.57048  -0.57009  -0.16906  -0.16879
  Beta  occ. eigenvalues --   -0.11164  -0.10937  -0.03990  -0.03989   0.24363
  Beta virt. eigenvalues --    0.32798   0.52651   0.52661   0.77080   0.77709
  Beta virt. eigenvalues --    1.14895   1.15621   1.17578   1.17599   1.18094
  Beta virt. eigenvalues --    1.18800   1.19640   1.19652   1.26722   1.26770

 Mulliken charges and spin densities:
               1          2
     1  O   -0.399419   1.100443
     2  O   -0.600581   0.899557
     3  O   -0.600581   0.899557
     4  O   -0.399419   1.100443
 Sum of Mulliken charges =  -2.00000   4.00000

 Dipole moment (field-independent basis, Debye):
    X=             -0.0000    Y=              0.0000    Z=              0.0000  Tot=              0.0000
 Quadrupole moment (field-independent basis, Debye-Ang):
   XX=            -25.1342   YY=            -23.9693   ZZ=           -138.3359
   XY=             -0.0000   XZ=              0.0000   YZ=             -0.0000

 Normal termination of Gaussian 16 at Sat Jan  7 08:41:40 2023.
