 Gaussian 16, Revision A.03,
 Gaussian 16:  ES64L-G16RevA.03 25-Dec-2016

 ------------------------------------------------
 #p CCSD(T,MaxCyc=300)/cc-pVTZ Guess=Read SCF=XQC
 ------------------------------------------------

 --------
 O2_O2_61
 --------
 Symbolic Z-matrix:
 Charge = -2 Multiplicity = 5

                         Standard orientation:
 ---------------------------------------------------------------------
 Center     Atomic      Atomic             Coordinates (Angstroms)
 Number     Number       Type             X           Y           Z
 ---------------------------------------------------------------------
      1          8           0        0.000000    0.000000    1.224412
      2          8           0        0.000000    0.000000    2.576792
      3          8           0        0.000000    0.000000   -2.576792
      4          8           0        0.000000    0.000000   -1.224412
 ---------------------------------------------------------------------

 SCF Done:  E(UHF) =  -298.779534582     A.U. after   14 cycles
 E2 =    -0.1053192290D+01 EUMP2 =    -0.29983272687222D+03
 CCSD(T)
 CCSD(T)= -0.29986958425D+03

 Unable to determine electronic state:  an orbital has unidentified symmetry.
 Alpha  occ. eigenvalues --  -20.18741 -20.18739 -20.15387 -20.15387  -1.06687
 Alpha  occ. eigenvalues --   -1.06361  -0.71066  -0.69358  -0.24912  -0.24362
 Alpha  occ. eigenvalues --   -0.22767  -0.22519  -0.22086  -0.16865  -0.05062
 Alpha  occ. eigenvalues --   -0.03983  -0.02166  -0.01213   0.41983
 Alpha virt. eigenvalues --    0.67242   1.10369   1.12973   1.13324   1.13785
 Alpha virt. eigenvalues --    1.16309   1.18133   1.19795   1.21642   1.24482
 Alpha virt. eigenvalues --    1.34053   1.34892   1.37694   1.38532   1.77976

  Beta  occ. eigenvalues --  -20.12966 -20.12964 -20.10018 -20.10017  -0.89953
  Beta  occ. eigenvalues --   -0.89481  -0.52168  -0.49552  -0.12773  -0.08061
  Beta  occ. eigenvalues --   -0.06293  -0.04959   0.01685   0.02771   0.25679
  Beta virt. eigenvalues --    0.45923   0.57261   0.59844   0.83184   0.89078
  Beta virt. eigenvalues --    1.19150   1.19979   1.21673   1.22771   1.23376
  Beta virt. eigenvalues --    1.26960   1.28141   1.29782   1.32010   1.39436

 Mulliken charges and spin densities:
               1          2
     1  O   -0.373232   1.003473
     2  O   -0.626768   0.996527
     3  O   -0.626768   0.996527
     4  O   -0.373232   1.003473
 Sum of Mulliken charges =  -2.00000   4.00000

 Dipole moment (field-independent basis, Debye):
    X=             -0.0000    Y=             -0.0000    Z=             -0.0000  Tot=              0.0000
 Quadrupole moment (field-independent basis, Debye-Ang):
   XX=            -25.2687   YY=            -24.0295   ZZ=            -74.3386
   XY=             -0.0000   XZ=              0.0000   YZ=             -0.0000

 Normal termination of Gaussian 16 at Sat Jan  7 04:17:32 2023.
