 Gaussian 16, Revision A.03,
 Gaussian 16:  ES64L-G16RevA.03 25-Dec-2016

 ------------------------------------------------
 #p CCSD(T,MaxCyc=300)/cc-pVTZ Guess=Read SCF=XQC
 ------------------------------------------------

 ---------
 O2_O2_133
 ---------
 Symbolic Z-matrix:
 Charge = -2 Multiplicity = 5

                         Standard orientation:
 ---------------------------------------------------------------------
 Center     Atomic      Atomic             Coordinates (Angstroms)
 Number     Number       Type             X           Y           Z
 ---------------------------------------------------------------------
      1          8           0        0.000000    0.000000    1.734121
      2          8           0        0.000000    0.000000    3.086501
      3          8           0        0.000000    0.000000   -3.086501
      4          8           0        0.000000    0.000000   -1.734121
 ---------------------------------------------------------------------

 SCF Done:  E(UHF) =  -298.781846118     A.U. after   16 cycles
 E2 =    -0.1110269857D+01 EUMP2 =    -0.29989211597551D+03
 CCSD(T)
 CCSD(T)= -0.29990674810D+03

 Unable to determine electronic state:  an orbital has unidentified symmetry.
 Alpha  occ. eigenvalues --  -20.23881 -20.23880 -20.19012 -20.19012  -1.10124
 Alpha  occ. eigenvalues --   -1.10100  -0.73834  -0.73642  -0.28876  -0.28807
 Alpha  occ. eigenvalues --   -0.26197  -0.26130  -0.23758  -0.22350  -0.08120
 Alpha  occ. eigenvalues --   -0.08021  -0.05594  -0.05476   0.41962
 Alpha virt. eigenvalues --    0.60161   1.02343   1.11407   1.11557   1.12956
 Alpha virt. eigenvalues --    1.12970   1.13384   1.14192   1.19825   1.20952
 Alpha virt. eigenvalues --    1.22944   1.24267   1.35001   1.35235   1.37978

  Beta  occ. eigenvalues --  -20.18173 -20.18173 -20.14059 -20.14059  -0.94251
  Beta  occ. eigenvalues --   -0.94213  -0.55093  -0.54782  -0.15170  -0.14496
  Beta  occ. eigenvalues --   -0.09292  -0.08670  -0.01986  -0.01910   0.24787
  Beta virt. eigenvalues --    0.36666   0.54689   0.55227   0.76845   0.83292
  Beta virt. eigenvalues --    1.10886   1.18026   1.18958   1.19241   1.20265
  Beta virt. eigenvalues --    1.21396   1.22084   1.27797   1.30654   1.30944

 Mulliken charges and spin densities:
               1          2
     1  O   -0.366988   1.127146
     2  O   -0.633012   0.872854
     3  O   -0.633012   0.872854
     4  O   -0.366988   1.127146
 Sum of Mulliken charges =  -2.00000   4.00000

 Dipole moment (field-independent basis, Debye):
    X=             -0.0000    Y=              0.0000    Z=              0.0000  Tot=              0.0000
 Quadrupole moment (field-independent basis, Debye-Ang):
   XX=            -25.1768   YY=            -24.0160   ZZ=            -96.3605
   XY=             -0.0000   XZ=              0.0000   YZ=             -0.0000

 Normal termination of Gaussian 16 at Sat Jan  7 05:59:19 2023.
