 Gaussian 16, Revision A.03,
 Gaussian 16:  ES64L-G16RevA.03 25-Dec-2016

 ------------------------------------------------
 #p CCSD(T,MaxCyc=300)/cc-pVTZ Guess=Read SCF=XQC
 ------------------------------------------------

 ---------
 O2_O2_171
 ---------
 Symbolic Z-matrix:
 Charge = -2 Multiplicity = 5

                         Standard orientation:
 ---------------------------------------------------------------------
 Center     Atomic      Atomic             Coordinates (Angstroms)
 Number     Number       Type             X           Y           Z
 ---------------------------------------------------------------------
      1          8           0        0.000000    0.000000    2.003135
      2          8           0        0.000000    0.000000    3.355515
      3          8           0        0.000000    0.000000   -3.355515
      4          8           0        0.000000    0.000000   -2.003135
 ---------------------------------------------------------------------

 SCF Done:  E(UHF) =  -298.773903051     A.U. after   16 cycles
 E2 =    -0.1156673428D+01 EUMP2 =    -0.29993057647954D+03
 CCSD(T)
 CCSD(T)= -0.29992128529D+03

 Unable to determine electronic state:  an orbital has unidentified symmetry.
 Alpha  occ. eigenvalues --  -20.24180 -20.24180 -20.20148 -20.20147  -1.11041
 Alpha  occ. eigenvalues --   -1.11035  -0.74852  -0.74783  -0.29705  -0.29685
 Alpha  occ. eigenvalues --   -0.27003  -0.26985  -0.24841  -0.24099  -0.09021
 Alpha  occ. eigenvalues --   -0.08991  -0.06512  -0.06476   0.42590
 Alpha virt. eigenvalues --    0.56276   1.03689   1.10664   1.11125   1.11569
 Alpha virt. eigenvalues --    1.12499   1.12872   1.13698   1.19701   1.20636
 Alpha virt. eigenvalues --    1.20870   1.21880   1.23641   1.34194   1.34234

  Beta  occ. eigenvalues --  -20.18401 -20.18401 -20.15134 -20.15134  -0.94958
  Beta  occ. eigenvalues --   -0.94946  -0.55924  -0.55797  -0.15862  -0.15614
  Beta  occ. eigenvalues --   -0.10091  -0.09681  -0.02884  -0.02861   0.24654
  Beta virt. eigenvalues --    0.34890   0.53894   0.54060   0.76624   0.80969
  Beta virt. eigenvalues --    1.12491   1.17464   1.18413   1.18686   1.19030
  Beta virt. eigenvalues --    1.20752   1.20957   1.27224   1.27693   1.28602

 Mulliken charges and spin densities:
               1          2
     1  O   -0.379733   1.117221
     2  O   -0.620267   0.882779
     3  O   -0.620267   0.882779
     4  O   -0.379733   1.117221
 Sum of Mulliken charges =  -2.00000   4.00000

 Dipole moment (field-independent basis, Debye):
    X=             -0.0000    Y=              0.0000    Z=             -0.0000  Tot=              0.0000
 Quadrupole moment (field-independent basis, Debye-Ang):
   XX=            -25.1552   YY=            -23.9943   ZZ=           -110.4076
   XY=             -0.0000   XZ=              0.0000   YZ=             -0.0000

 Normal termination of Gaussian 16 at Sat Jan  7 06:55:28 2023.
