 Gaussian 16, Revision A.03,
 Gaussian 16:  ES64L-G16RevA.03 25-Dec-2016

 ------------------------------------------------
 #p CCSD(T,MaxCyc=300)/cc-pVTZ Guess=Read SCF=XQC
 ------------------------------------------------

 --------
 O2_O2_55
 --------
 Symbolic Z-matrix:
 Charge = -2 Multiplicity = 5

                         Standard orientation:
 ---------------------------------------------------------------------
 Center     Atomic      Atomic             Coordinates (Angstroms)
 Number     Number       Type             X           Y           Z
 ---------------------------------------------------------------------
      1          8           0        0.000000    0.000000    1.181937
      2          8           0        0.000000    0.000000    2.534317
      3          8           0        0.000000    0.000000   -2.534317
      4          8           0        0.000000    0.000000   -1.181937
 ---------------------------------------------------------------------

 SCF Done:  E(UHF) =  -298.778920738     A.U. after   13 cycles
 E2 =    -0.1047196717D+01 EUMP2 =    -0.29982611745587D+03
 CCSD(T)
 CCSD(T)= -0.29986501304D+03

 Unable to determine electronic state:  an orbital has unidentified symmetry.
 Alpha  occ. eigenvalues --  -20.18175 -20.18171 -20.14968 -20.14968  -1.06381
 Alpha  occ. eigenvalues --   -1.05971  -0.70914  -0.68833  -0.24573  -0.23918
 Alpha  occ. eigenvalues --   -0.22583  -0.22461  -0.21633  -0.16146  -0.04768
 Alpha  occ. eigenvalues --   -0.03456  -0.01864  -0.00729   0.41979
 Alpha virt. eigenvalues --    0.68053   1.10295   1.13219   1.13255   1.14015
 Alpha virt. eigenvalues --    1.16579   1.18475   1.19975   1.21889   1.28089
 Alpha virt. eigenvalues --    1.35190   1.35968   1.37888   1.38839   1.80572

  Beta  occ. eigenvalues --  -20.12393 -20.12391 -20.09560 -20.09560  -0.89539
  Beta  occ. eigenvalues --   -0.88952  -0.52080  -0.48914  -0.12721  -0.07183
  Beta  occ. eigenvalues --   -0.06036  -0.04592   0.01888   0.03229   0.25638
  Beta virt. eigenvalues --    0.47031   0.57510   0.60410   0.83761   0.89659
  Beta virt. eigenvalues --    1.19382   1.20177   1.22033   1.22989   1.23658
  Beta virt. eigenvalues --    1.27428   1.28418   1.32381   1.32729   1.39658

 Mulliken charges and spin densities:
               1          2
     1  O   -0.370991   0.990466
     2  O   -0.629009   1.009534
     3  O   -0.629009   1.009534
     4  O   -0.370991   0.990466
 Sum of Mulliken charges =  -2.00000   4.00000

 Dipole moment (field-independent basis, Debye):
    X=             -0.0000    Y=              0.0000    Z=             -0.0000  Tot=              0.0000
 Quadrupole moment (field-independent basis, Debye-Ang):
   XX=            -25.2797   YY=            -24.0267   ZZ=            -72.9408
   XY=             -0.0000   XZ=              0.0000   YZ=             -0.0000

 Normal termination of Gaussian 16 at Sat Jan  7 04:09:13 2023.
