 Gaussian 16, Revision A.03,
 Gaussian 16:  ES64L-G16RevA.03 25-Dec-2016

 ------------------------------------------------
 #p CCSD(T,MaxCyc=300)/cc-pVTZ Guess=Read SCF=XQC
 ------------------------------------------------

 --------
 O2_O2_70
 --------
 Symbolic Z-matrix:
 Charge = -2 Multiplicity = 5

                         Standard orientation:
 ---------------------------------------------------------------------
 Center     Atomic      Atomic             Coordinates (Angstroms)
 Number     Number       Type             X           Y           Z
 ---------------------------------------------------------------------
      1          8           0        0.000000    0.000000    1.288126
      2          8           0        0.000000    0.000000    2.640506
      3          8           0        0.000000    0.000000   -2.640506
      4          8           0        0.000000    0.000000   -1.288126
 ---------------------------------------------------------------------

 SCF Done:  E(UHF) =  -298.780289854     A.U. after   14 cycles
 E2 =    -0.1061622504D+01 EUMP2 =    -0.29984191235807D+03
 CCSD(T)
 CCSD(T)= -0.29987567232D+03

 Unable to determine electronic state:  an orbital has unidentified symmetry.
 Alpha  occ. eigenvalues --  -20.19568 -20.19566 -20.15981 -20.15981  -1.07154
 Alpha  occ. eigenvalues --   -1.06922  -0.71354  -0.70079  -0.25433  -0.25009
 Alpha  occ. eigenvalues --   -0.23241  -0.22731  -0.22497  -0.17821  -0.05516
 Alpha  occ. eigenvalues --   -0.04711  -0.02630  -0.01896   0.41956
 Alpha virt. eigenvalues --    0.66179   1.10499   1.12658   1.13429   1.13562
 Alpha virt. eigenvalues --    1.15903   1.17621   1.19478   1.19618   1.21351
 Alpha virt. eigenvalues --    1.32337   1.33269   1.37382   1.38090   1.73701

  Beta  occ. eigenvalues --  -20.13808 -20.13806 -20.10670 -20.10670  -0.90585
  Beta  occ. eigenvalues --   -0.90244  -0.52405  -0.50436  -0.12933  -0.09242
  Beta  occ. eigenvalues --   -0.06684  -0.05488   0.01328   0.02117   0.25664
  Beta virt. eigenvalues --    0.44362   0.56884   0.59048   0.82292   0.88239
  Beta virt. eigenvalues --    1.18863   1.19550   1.21205   1.22545   1.22962
  Beta virt. eigenvalues --    1.25809   1.26264   1.27864   1.31550   1.39085

 Mulliken charges and spin densities:
               1          2
     1  O   -0.375475   1.022595
     2  O   -0.624525   0.977405
     3  O   -0.624525   0.977405
     4  O   -0.375475   1.022595
 Sum of Mulliken charges =  -2.00000   4.00000

 Dipole moment (field-independent basis, Debye):
    X=             -0.0000    Y=             -0.0000    Z=              0.0000  Tot=              0.0000
 Quadrupole moment (field-independent basis, Debye-Ang):
   XX=            -25.2515   YY=            -24.0322   ZZ=            -76.5412
   XY=             -0.0000   XZ=              0.0000   YZ=             -0.0000

 Normal termination of Gaussian 16 at Sat Jan  7 04:30:00 2023.
