 Gaussian 16, Revision A.03,
 Gaussian 16:  ES64L-G16RevA.03 25-Dec-2016

 ------------------------------------------------
 #p CCSD(T,MaxCyc=300)/cc-pVTZ Guess=Read SCF=XQC
 ------------------------------------------------

 --------
 O2_O2_15
 --------
 Symbolic Z-matrix:
 Charge = -2 Multiplicity = 5

                         Standard orientation:
 ---------------------------------------------------------------------
 Center     Atomic      Atomic             Coordinates (Angstroms)
 Number     Number       Type             X           Y           Z
 ---------------------------------------------------------------------
      1          8           0        0.000000    0.000000    0.898765
      2          8           0        0.000000    0.000000    2.251145
      3          8           0        0.000000    0.000000   -2.251145
      4          8           0        0.000000    0.000000   -0.898765
 ---------------------------------------------------------------------

 SCF Done:  E(UHF) =  -298.753951962     A.U. after   13 cycles
 E2 =    -0.9990769543D+00 EUMP2 =    -0.29975302891610D+03
 CCSD(T)
 CCSD(T)= -0.29980487143D+03

 Unable to determine electronic state:  an orbital has unidentified symmetry.
 Alpha  occ. eigenvalues --  -20.13490 -20.13479 -20.11286 -20.11285  -1.04621
 Alpha  occ. eigenvalues --   -1.02609  -0.71738  -0.63630  -0.24537  -0.22508
 Alpha  occ. eigenvalues --   -0.20805  -0.20334  -0.17646  -0.08427  -0.03224
 Alpha  occ. eigenvalues --   -0.00023   0.01643   0.03700   0.40816
 Alpha virt. eigenvalues --    0.77828   1.09999   1.12264   1.16667   1.17541
 Alpha virt. eigenvalues --    1.18551   1.20969   1.23394   1.25237   1.38634
 Alpha virt. eigenvalues --    1.39374   1.42207   1.42591   1.51540   1.93257

  Beta  occ. eigenvalues --  -20.07876 -20.07870 -20.05532 -20.05532  -0.87369
  Beta  occ. eigenvalues --   -0.84518  -0.54253  -0.42925  -0.13491  -0.04375
  Beta  occ. eigenvalues --   -0.01549   0.01722   0.02423   0.07277   0.23809
  Beta virt. eigenvalues --    0.56351   0.59320   0.65279   0.87470   0.94457
  Beta virt. eigenvalues --    1.20721   1.22323   1.25049   1.25875   1.26121
  Beta virt. eigenvalues --    1.31003   1.33072   1.36540   1.40771   1.41489

 Mulliken charges and spin densities:
               1          2
     1  O   -0.346654   0.882419
     2  O   -0.653346   1.117581
     3  O   -0.653346   1.117581
     4  O   -0.346654   0.882419
 Sum of Mulliken charges =  -2.00000   4.00000

 Dipole moment (field-independent basis, Debye):
    X=             -0.0000    Y=             -0.0000    Z=             -0.0000  Tot=              0.0000
 Quadrupole moment (field-independent basis, Debye-Ang):
   XX=            -25.2577   YY=            -23.9111   ZZ=            -64.9918
   XY=             -0.0000   XZ=              0.0000   YZ=             -0.0000

 7\PMP3-0=-299.7254008\MP4SDQ=-299.7403852\CCSD=-299.742804\CCSD(T)=-29
 Normal termination of Gaussian 16 at Sat Jan  7 03:14:24 2023.
