 Gaussian 16, Revision A.03,
 Gaussian 16:  ES64L-G16RevA.03 25-Dec-2016

 ------------------------------------------------
 #p CCSD(T,MaxCyc=300)/cc-pVTZ Guess=Read SCF=XQC
 ------------------------------------------------

 ---------
 O2_O2_105
 ---------
 Symbolic Z-matrix:
 Charge = -2 Multiplicity = 5

                         Standard orientation:
 ---------------------------------------------------------------------
 Center     Atomic      Atomic             Coordinates (Angstroms)
 Number     Number       Type             X           Y           Z
 ---------------------------------------------------------------------
      1          8           0        0.000000    0.000000    1.535901
      2          8           0        0.000000    0.000000    2.888281
      3          8           0        0.000000    0.000000   -2.888281
      4          8           0        0.000000    0.000000   -1.535901
 ---------------------------------------------------------------------

 SCF Done:  E(UHF) =  -298.783160036     A.U. after   16 cycles
 E2 =    -0.1089123473D+01 EUMP2 =    -0.29987228350898D+03
 CCSD(T)
 CCSD(T)= -0.29989459378D+03

 Unable to determine electronic state:  an orbital has unidentified symmetry.
 Alpha  occ. eigenvalues --  -20.22660 -20.22659 -20.17816 -20.17816  -1.08999
 Alpha  occ. eigenvalues --   -1.08933  -0.72800  -0.72369  -0.27598  -0.27437
 Alpha  occ. eigenvalues --   -0.25126  -0.24958  -0.23024  -0.20678  -0.07172
 Alpha  occ. eigenvalues --   -0.06927  -0.04461  -0.04196   0.41744
 Alpha virt. eigenvalues --    0.62854   1.05974   1.11235   1.11891   1.13207
 Alpha virt. eigenvalues --    1.13509   1.14323   1.15622   1.19669   1.20918
 Alpha virt. eigenvalues --    1.26159   1.27454   1.36004   1.36371   1.53397

  Beta  occ. eigenvalues --  -20.16930 -20.16929 -20.12766 -20.12766  -0.92987
  Beta  occ. eigenvalues --   -0.92889  -0.53960  -0.53283  -0.14209  -0.12791
  Beta  occ. eigenvalues --   -0.08204  -0.07358  -0.00550  -0.00344   0.25110
  Beta virt. eigenvalues --    0.39177   0.55476   0.56547   0.78739   0.85254
  Beta virt. eigenvalues --    1.13572   1.18338   1.19779   1.19869   1.21468
  Beta virt. eigenvalues --    1.21998   1.23610   1.27687   1.30637   1.34320

 Mulliken charges and spin densities:
               1          2
     1  O   -0.366021   1.102530
     2  O   -0.633979   0.897470
     3  O   -0.633979   0.897470
     4  O   -0.366021   1.102530
 Sum of Mulliken charges =  -2.00000   4.00000

 Dipole moment (field-independent basis, Debye):
    X=             -0.0000    Y=              0.0000    Z=              0.0000  Tot=              0.0000
 Quadrupole moment (field-independent basis, Debye-Ang):
   XX=            -25.2015   YY=            -24.0341   ZZ=            -86.9020
   XY=             -0.0000   XZ=              0.0000   YZ=             -0.0000

 Normal termination of Gaussian 16 at Sat Jan  7 05:17:53 2023.
