 Gaussian 16, Revision A.03,
 Gaussian 16:  ES64L-G16RevA.03 25-Dec-2016

 ------------------------------------------------
 #p CCSD(T,MaxCyc=300)/cc-pVTZ Guess=Read SCF=XQC
 ------------------------------------------------

 ---------
 O2_O2_223
 ---------
 Symbolic Z-matrix:
 Charge = -2 Multiplicity = 5

                         Standard orientation:
 ---------------------------------------------------------------------
 Center     Atomic      Atomic             Coordinates (Angstroms)
 Number     Number       Type             X           Y           Z
 ---------------------------------------------------------------------
      1          8           0        0.000000    0.000000    2.371258
      2          8           0        0.000000    0.000000    3.723638
      3          8           0        0.000000    0.000000   -3.723638
      4          8           0        0.000000    0.000000   -2.371258
 ---------------------------------------------------------------------

 SCF Done:  E(UHF) =  -298.768816002     A.U. after   10 cycles
 E2 =    -0.1220913626D+01 EUMP2 =    -0.29998972962871D+03
 CCSD(T)
 CCSD(T)= -0.29993838637D+03

 Unable to determine electronic state:  an orbital has unidentified symmetry.
 Alpha  occ. eigenvalues --  -20.24516 -20.24515 -20.21241 -20.21241  -1.11977
 Alpha  occ. eigenvalues --   -1.11976  -0.75907  -0.75886  -0.30529  -0.30526
 Alpha  occ. eigenvalues --   -0.27852  -0.27849  -0.26058  -0.25694  -0.09974
 Alpha  occ. eigenvalues --   -0.09970  -0.07446  -0.07440   0.42820
 Alpha virt. eigenvalues --    0.52725   1.06016   1.08026   1.10307   1.10368
 Alpha virt. eigenvalues --    1.11664   1.11715   1.14368   1.16183   1.18990
 Alpha virt. eigenvalues --    1.19122   1.20182   1.20324   1.33234   1.33238

  Beta  occ. eigenvalues --  -20.18661 -20.18661 -20.16132 -20.16132  -0.95653
  Beta  occ. eigenvalues --   -0.95649  -0.56758  -0.56709  -0.16622  -0.16573
  Beta  occ. eigenvalues --   -0.10886  -0.10628  -0.03711  -0.03707   0.24472
  Beta virt. eigenvalues --    0.33275   0.52960   0.52982   0.77167   0.78312
  Beta virt. eigenvalues --    1.14842   1.16140   1.17868   1.17914   1.18220
  Beta virt. eigenvalues --    1.19691   1.19924   1.19950   1.27009   1.27115

 Mulliken charges and spin densities:
               1          2
     1  O   -0.394867   1.103868
     2  O   -0.605133   0.896132
     3  O   -0.605133   0.896132
     4  O   -0.394867   1.103868
 Sum of Mulliken charges =  -2.00000   4.00000

 Dipole moment (field-independent basis, Debye):
    X=             -0.0000    Y=              0.0000    Z=              0.0000  Tot=              0.0000
 Quadrupole moment (field-independent basis, Debye-Ang):
   XX=            -25.1373   YY=            -23.9729   ZZ=           -131.1604
   XY=             -0.0000   XZ=              0.0000   YZ=             -0.0000

 6146\PMP3-0=-299.993152\MP4SDQ=-299.6291052\CCSD=-299.8170325\CCSD(T)=
 Normal termination of Gaussian 16 at Sat Jan  7 08:15:44 2023.
