 Gaussian 16, Revision A.03,
 Gaussian 16:  ES64L-G16RevA.03 25-Dec-2016

 ------------------------------------------------
 #p CCSD(T,MaxCyc=300)/cc-pVTZ Guess=Read SCF=XQC
 ------------------------------------------------

 ---------
 O2_O2_254
 ---------
 Symbolic Z-matrix:
 Charge = -2 Multiplicity = 5

                         Standard orientation:
 ---------------------------------------------------------------------
 Center     Atomic      Atomic             Coordinates (Angstroms)
 Number     Number       Type             X           Y           Z
 ---------------------------------------------------------------------
      1          8           0        0.000000    0.000000    2.590716
      2          8           0        0.000000    0.000000    3.943096
      3          8           0        0.000000    0.000000   -3.943096
      4          8           0        0.000000    0.000000   -2.590716
 ---------------------------------------------------------------------

 SCF Done:  E(UHF) =  -298.769670173     A.U. after   15 cycles
 E2 =    -0.1251502207D+01 EUMP2 =    -0.30002117238032D+03
 CCSD(T)
 CCSD(T)= -0.29994671067D+03

 Unable to determine electronic state:  an orbital has unidentified symmetry.
 Alpha  occ. eigenvalues --  -20.24890 -20.24890 -20.21876 -20.21875  -1.12514
 Alpha  occ. eigenvalues --   -1.12514  -0.76480  -0.76469  -0.31038  -0.31037
 Alpha  occ. eigenvalues --   -0.28372  -0.28371  -0.26649  -0.26382  -0.10535
 Alpha  occ. eigenvalues --   -0.10534  -0.07996  -0.07995   0.42676
 Alpha virt. eigenvalues --    0.51455   1.06058   1.06718   1.09779   1.09797
 Alpha virt. eigenvalues --    1.11136   1.11150   1.14187   1.14853   1.18461
 Alpha virt. eigenvalues --    1.18504   1.19654   1.19700   1.32696   1.32700

  Beta  occ. eigenvalues --  -20.19039 -20.19039 -20.16729 -20.16729  -0.96149
  Beta  occ. eigenvalues --   -0.96147  -0.57286  -0.57253  -0.17143  -0.17127
  Beta  occ. eigenvalues --   -0.11393  -0.11188  -0.04218  -0.04217   0.24263
  Beta virt. eigenvalues --    0.32422   0.52401   0.52407   0.76938   0.77303
  Beta virt. eigenvalues --    1.14807   1.15234   1.17341   1.17353   1.17933
  Beta virt. eigenvalues --    1.18303   1.19410   1.19416   1.26485   1.26509

 Mulliken charges and spin densities:
               1          2
     1  O   -0.403012   1.097710
     2  O   -0.596988   0.902290
     3  O   -0.596988   0.902290
     4  O   -0.403012   1.097710
 Sum of Mulliken charges =  -2.00000   4.00000

 Dipole moment (field-independent basis, Debye):
    X=             -0.0000    Y=              0.0000    Z=             -0.0000  Tot=              0.0000
 Quadrupole moment (field-independent basis, Debye-Ang):
   XX=            -25.1322   YY=            -23.9674   ZZ=           -144.4237
   XY=             -0.0000   XZ=              0.0000   YZ=             -0.0000

 Normal termination of Gaussian 16 at Sat Jan  7 09:03:58 2023.
