 Gaussian 16, Revision A.03,
 Gaussian 16:  ES64L-G16RevA.03 25-Dec-2016

 ------------------------------------------------
 #p CCSD(T,MaxCyc=300)/cc-pVTZ Guess=Read SCF=XQC
 ------------------------------------------------

 --------
 O2_O2_74
 --------
 Symbolic Z-matrix:
 Charge = -2 Multiplicity = 5

                         Standard orientation:
 ---------------------------------------------------------------------
 Center     Atomic      Atomic             Coordinates (Angstroms)
 Number     Number       Type             X           Y           Z
 ---------------------------------------------------------------------
      1          8           0        0.000000    0.000000    1.316443
      2          8           0        0.000000    0.000000    2.668823
      3          8           0        0.000000    0.000000   -2.668823
      4          8           0        0.000000    0.000000   -1.316443
 ---------------------------------------------------------------------

 SCF Done:  E(UHF) =  -298.780620340     A.U. after   14 cycles
 E2 =    -0.1065167013D+01 EUMP2 =    -0.29984578735272D+03
 CCSD(T)
 CCSD(T)= -0.29987815725D+03

 Unable to determine electronic state:  an orbital has unidentified symmetry.
 Alpha  occ. eigenvalues --  -20.19931 -20.19929 -20.16232 -20.16232  -1.07364
 Alpha  occ. eigenvalues --   -1.07165  -0.71500  -0.70378  -0.25669  -0.25291
 Alpha  occ. eigenvalues --   -0.23456  -0.23008  -0.22512  -0.18207  -0.05721
 Alpha  occ. eigenvalues --   -0.05015  -0.02841  -0.02186   0.41933
 Alpha virt. eigenvalues --    0.65751   1.10566   1.12548   1.13457   1.13497
 Alpha virt. eigenvalues --    1.15724   1.17393   1.17444   1.19571   1.21250
 Alpha virt. eigenvalues --    1.31577   1.32551   1.37236   1.37894   1.71645

  Beta  occ. eigenvalues --  -20.14179 -20.14177 -20.10947 -20.10947  -0.90869
  Beta  occ. eigenvalues --   -0.90574  -0.52542  -0.50806  -0.13034  -0.09724
  Beta  occ. eigenvalues --   -0.06858  -0.05717   0.01152   0.01835   0.25631
  Beta virt. eigenvalues --    0.43701   0.56714   0.58713   0.81886   0.87877
  Beta virt. eigenvalues --    1.18759   1.19269   1.21020   1.22472   1.22781
  Beta virt. eigenvalues --    1.24290   1.25956   1.27785   1.31379   1.38922

 Mulliken charges and spin densities:
               1          2
     1  O   -0.375952   1.031131
     2  O   -0.624048   0.968869
     3  O   -0.624048   0.968869
     4  O   -0.375952   1.031131
 Sum of Mulliken charges =  -2.00000   4.00000

 Dipole moment (field-independent basis, Debye):
    X=             -0.0000    Y=             -0.0000    Z=              0.0000  Tot=              0.0000
 Quadrupole moment (field-independent basis, Debye-Ang):
   XX=            -25.2441   YY=            -24.0333   ZZ=            -77.5676
   XY=             -0.0000   XZ=              0.0000   YZ=             -0.0000

 Normal termination of Gaussian 16 at Sat Jan  7 04:35:30 2023.
