 Gaussian 16, Revision A.03,
 Gaussian 16:  ES64L-G16RevA.03 25-Dec-2016

 ------------------------------------------------
 #p CCSD(T,MaxCyc=300)/cc-pVTZ Guess=Read SCF=XQC
 ------------------------------------------------

 --------
 O2_O2_73
 --------
 Symbolic Z-matrix:
 Charge = -2 Multiplicity = 5

                         Standard orientation:
 ---------------------------------------------------------------------
 Center     Atomic      Atomic             Coordinates (Angstroms)
 Number     Number       Type             X           Y           Z
 ---------------------------------------------------------------------
      1          8           0        0.000000    0.000000    1.309363
      2          8           0        0.000000    0.000000    2.661744
      3          8           0        0.000000    0.000000   -2.661744
      4          8           0        0.000000    0.000000   -1.309363
 ---------------------------------------------------------------------

 SCF Done:  E(UHF) =  -298.780536792     A.U. after   14 cycles
 E2 =    -0.1064291719D+01 EUMP2 =    -0.29984482851112D+03
 CCSD(T)
 CCSD(T)= -0.29987754666D+03

 Unable to determine electronic state:  an orbital has unidentified symmetry.
 Alpha  occ. eigenvalues --  -20.19841 -20.19838 -20.16170 -20.16170  -1.07311
 Alpha  occ. eigenvalues --   -1.07105  -0.71463  -0.70304  -0.25610  -0.25221
 Alpha  occ. eigenvalues --   -0.23402  -0.22939  -0.22507  -0.18112  -0.05669
 Alpha  occ. eigenvalues --   -0.04940  -0.02788  -0.02114   0.41939
 Alpha virt. eigenvalues --    0.65856   1.10548   1.12574   1.13451   1.13512
 Alpha virt. eigenvalues --    1.15769   1.17450   1.17941   1.19581   1.21274
 Alpha virt. eigenvalues --    1.31766   1.32730   1.37273   1.37943   1.72168

  Beta  occ. eigenvalues --  -20.14086 -20.14084 -20.10878 -20.10878  -0.90798
  Beta  occ. eigenvalues --   -0.90492  -0.52506  -0.50714  -0.13007  -0.09606
  Beta  occ. eigenvalues --   -0.06815  -0.05660   0.01197   0.01905   0.25640
  Beta virt. eigenvalues --    0.43864   0.56757   0.58796   0.81988   0.87967
  Beta virt. eigenvalues --    1.18784   1.19347   1.21065   1.22489   1.22826
  Beta virt. eigenvalues --    1.24652   1.26033   1.27802   1.31420   1.38963

 Mulliken charges and spin densities:
               1          2
     1  O   -0.375867   1.028988
     2  O   -0.624133   0.971012
     3  O   -0.624133   0.971012
     4  O   -0.375867   1.028988
 Sum of Mulliken charges =  -2.00000   4.00000

 Dipole moment (field-independent basis, Debye):
    X=             -0.0000    Y=              0.0000    Z=              0.0000  Tot=              0.0000
 Quadrupole moment (field-independent basis, Debye-Ang):
   XX=            -25.2459   YY=            -24.0330   ZZ=            -77.3080
   XY=             -0.0000   XZ=              0.0000   YZ=             -0.0000

 Normal termination of Gaussian 16 at Sat Jan  7 04:34:07 2023.
