 Gaussian 16, Revision A.03,
 Gaussian 16:  ES64L-G16RevA.03 25-Dec-2016

 ------------------------------------------------
 #p CCSD(T,MaxCyc=300)/cc-pVTZ Guess=Read SCF=XQC
 ------------------------------------------------

 ---------
 O2_O2_284
 ---------
 Symbolic Z-matrix:
 Charge = -2 Multiplicity = 5

                         Standard orientation:
 ---------------------------------------------------------------------
 Center     Atomic      Atomic             Coordinates (Angstroms)
 Number     Number       Type             X           Y           Z
 ---------------------------------------------------------------------
      1          8           0        0.000000    0.000000    2.803094
      2          8           0        0.000000    0.000000    4.155474
      3          8           0        0.000000    0.000000   -4.155474
      4          8           0        0.000000    0.000000   -2.803094
 ---------------------------------------------------------------------

 SCF Done:  E(UHF) =  -298.771484951     A.U. after    9 cycles
 E2 =    -0.1277552568D+01 EUMP2 =    -0.30004903751932D+03
 CCSD(T)
 CCSD(T)= -0.29995360253D+03

 Unable to determine electronic state:  an orbital has unidentified symmetry.
 Alpha  occ. eigenvalues --  -20.25277 -20.25277 -20.22457 -20.22457  -1.13000
 Alpha  occ. eigenvalues --   -1.13000  -0.76989  -0.76982  -0.31507  -0.31506
 Alpha  occ. eigenvalues --   -0.28851  -0.28851  -0.27151  -0.26941  -0.11048
 Alpha  occ. eigenvalues --   -0.11047  -0.08498  -0.08497   0.42476
 Alpha virt. eigenvalues --    0.50534   1.05717   1.05910   1.09297   1.09304
 Alpha virt. eigenvalues --    1.10655   1.10660   1.13783   1.14108   1.17970
 Alpha virt. eigenvalues --    1.17989   1.19163   1.19183   1.32217   1.32219

  Beta  occ. eigenvalues --  -20.19443 -20.19443 -20.17281 -20.17281  -0.96626
  Beta  occ. eigenvalues --   -0.96624  -0.57777  -0.57751  -0.17638  -0.17633
  Beta  occ. eigenvalues --   -0.11867  -0.11700  -0.04683  -0.04682   0.24042
  Beta virt. eigenvalues --    0.31671   0.51892   0.51893   0.76524   0.76623
  Beta virt. eigenvalues --    1.14439   1.14559   1.16857   1.16860   1.17489
  Beta virt. eigenvalues --    1.17573   1.18939   1.18940   1.25997   1.26002

 Mulliken charges and spin densities:
               1          2
     1  O   -0.410092   1.092176
     2  O   -0.589908   0.907824
     3  O   -0.589908   0.907824
     4  O   -0.410092   1.092176
 Sum of Mulliken charges =  -2.00000   4.00000

 Dipole moment (field-independent basis, Debye):
    X=             -0.0000    Y=              0.0000    Z=              0.0000  Tot=              0.0000
 Quadrupole moment (field-independent basis, Debye-Ang):
   XX=            -25.1292   YY=            -23.9649   ZZ=           -158.0652
   XY=             -0.0000   XZ=              0.0000   YZ=             -0.0000

 575\PMP3-0=-300.0780518\MP4SDQ=-299.4105606\CCSD=-299.8257164\CCSD(T)=
 Normal termination of Gaussian 16 at Sat Jan  7 09:51:56 2023.
