 Gaussian 16, Revision A.03,
 Gaussian 16:  ES64L-G16RevA.03 25-Dec-2016

 ------------------------------------------------
 #p CCSD(T,MaxCyc=300)/cc-pVTZ Guess=Read SCF=XQC
 ------------------------------------------------

 ---------
 O2_O2_297
 ---------
 Symbolic Z-matrix:
 Charge = -2 Multiplicity = 5

                         Standard orientation:
 ---------------------------------------------------------------------
 Center     Atomic      Atomic             Coordinates (Angstroms)
 Number     Number       Type             X           Y           Z
 ---------------------------------------------------------------------
      1          8           0        0.000000    0.000000    2.895125
      2          8           0        0.000000    0.000000    4.247505
      3          8           0        0.000000    0.000000   -4.247505
      4          8           0        0.000000    0.000000   -2.895125
 ---------------------------------------------------------------------

 SCF Done:  E(UHF) =  -298.772357883     A.U. after   13 cycles
 E2 =    -0.1288249910D+01 EUMP2 =    -0.30006060779228D+03
 CCSD(T)
 CCSD(T)= -0.29995630071D+03

 Unable to determine electronic state:  an orbital has unidentified symmetry.
 Alpha  occ. eigenvalues --  -20.25440 -20.25439 -20.22694 -20.22694  -1.13196
 Alpha  occ. eigenvalues --   -1.13196  -0.77194  -0.77188  -0.31698  -0.31697
 Alpha  occ. eigenvalues --   -0.29046  -0.29046  -0.27350  -0.27158  -0.11256
 Alpha  occ. eigenvalues --   -0.11256  -0.08701  -0.08701   0.42385
 Alpha virt. eigenvalues --    0.50192   1.05531   1.05644   1.09102   1.09107
 Alpha virt. eigenvalues --    1.10460   1.10464   1.13589   1.13853   1.17770
 Alpha virt. eigenvalues --    1.17786   1.18963   1.18979   1.32024   1.32025

  Beta  occ. eigenvalues --  -20.19615 -20.19615 -20.17507 -20.17507  -0.96823
  Beta  occ. eigenvalues --   -0.96821  -0.57977  -0.57954  -0.17842  -0.17838
  Beta  occ. eigenvalues --   -0.12061  -0.11907  -0.04871  -0.04871   0.23947
  Beta virt. eigenvalues --    0.31370   0.51685   0.51686   0.76329   0.76382
  Beta virt. eigenvalues --    1.14251   1.14317   1.16660   1.16662   1.17285
  Beta virt. eigenvalues --    1.17328   1.18748   1.18748   1.25798   1.25801

 Mulliken charges and spin densities:
               1          2
     1  O   -0.412905   1.089906
     2  O   -0.587095   0.910094
     3  O   -0.587095   0.910094
     4  O   -0.412905   1.089906
 Sum of Mulliken charges =  -2.00000   4.00000

 Dipole moment (field-independent basis, Debye):
    X=             -0.0000    Y=              0.0000    Z=              0.0000  Tot=              0.0000
 Quadrupole moment (field-independent basis, Debye-Ang):
   XX=            -25.1283   YY=            -23.9644   ZZ=           -164.2388
   XY=             -0.0000   XZ=              0.0000   YZ=             -0.0000

 Normal termination of Gaussian 16 at Sat Jan  7 10:11:14 2023.
