 Gaussian 16, Revision A.03,
 Gaussian 16:  ES64L-G16RevA.03 25-Dec-2016

 ------------------------------------------------
 #p CCSD(T,MaxCyc=300)/cc-pVTZ Guess=Read SCF=XQC
 ------------------------------------------------

 ---------
 O2_O2_227
 ---------
 Symbolic Z-matrix:
 Charge = -2 Multiplicity = 5

                         Standard orientation:
 ---------------------------------------------------------------------
 Center     Atomic      Atomic             Coordinates (Angstroms)
 Number     Number       Type             X           Y           Z
 ---------------------------------------------------------------------
      1          8           0        0.000000    0.000000    2.399575
      2          8           0        0.000000    0.000000    3.751955
      3          8           0        0.000000    0.000000   -3.751955
      4          8           0        0.000000    0.000000   -2.399575
 ---------------------------------------------------------------------

 SCF Done:  E(UHF) =  -298.768820483     A.U. after   10 cycles
 E2 =    -0.1225153791D+01 EUMP2 =    -0.29999397427353D+03
 CCSD(T)
 CCSD(T)= -0.29993953709D+03

 Unable to determine electronic state:  an orbital has unidentified symmetry.
 Alpha  occ. eigenvalues --  -20.24560 -20.24559 -20.21324 -20.21324  -1.12048
 Alpha  occ. eigenvalues --   -1.12047  -0.75983  -0.75964  -0.30594  -0.30592
 Alpha  occ. eigenvalues --   -0.27919  -0.27916  -0.26139  -0.25791  -0.10047
 Alpha  occ. eigenvalues --   -0.10044  -0.07518  -0.07513   0.42808
 Alpha virt. eigenvalues --    0.52536   1.06061   1.07825   1.10239   1.10290
 Alpha virt. eigenvalues --    1.11595   1.11638   1.14368   1.15950   1.18923
 Alpha virt. eigenvalues --    1.19035   1.20115   1.20237   1.33162   1.33167

  Beta  occ. eigenvalues --  -20.18704 -20.18704 -20.16209 -20.16209  -0.95715
  Beta  occ. eigenvalues --   -0.95711  -0.56826  -0.56780  -0.16688  -0.16645
  Beta  occ. eigenvalues --   -0.10951  -0.10701  -0.03777  -0.03774   0.24448
  Beta virt. eigenvalues --    0.33161   0.52887   0.52905   0.77157   0.78158
  Beta virt. eigenvalues --    1.14876   1.16015   1.17800   1.17838   1.18198
  Beta virt. eigenvalues --    1.19443   1.19857   1.19879   1.26942   1.27031

 Mulliken charges and spin densities:
               1          2
     1  O   -0.395956   1.103045
     2  O   -0.604044   0.896955
     3  O   -0.604044   0.896955
     4  O   -0.395956   1.103045
 Sum of Mulliken charges =  -2.00000   4.00000

 Dipole moment (field-independent basis, Debye):
    X=             -0.0000    Y=              0.0000    Z=              0.0000  Tot=              0.0000
 Quadrupole moment (field-independent basis, Debye-Ang):
   XX=            -25.1365   YY=            -23.9719   ZZ=           -132.8284
   XY=             -0.0000   XZ=              0.0000   YZ=             -0.0000

 Normal termination of Gaussian 16 at Sat Jan  7 08:22:00 2023.
