 Gaussian 16, Revision A.03,
 Gaussian 16:  ES64L-G16RevA.03 25-Dec-2016

 ------------------------------------------------
 #p CCSD(T,MaxCyc=300)/cc-pVTZ Guess=Read SCF=XQC
 ------------------------------------------------

 -------
 O2_O2_2
 -------
 Symbolic Z-matrix:
 Charge = -2 Multiplicity = 5

                         Standard orientation:
 ---------------------------------------------------------------------
 Center     Atomic      Atomic             Coordinates (Angstroms)
 Number     Number       Type             X           Y           Z
 ---------------------------------------------------------------------
      1          8           0        0.000000    0.000000    0.806734
      2          8           0        0.000000    0.000000    2.159114
      3          8           0        0.000000    0.000000   -2.159114
      4          8           0        0.000000    0.000000   -0.806734
 ---------------------------------------------------------------------

 SCF Done:  E(UHF) =  -298.719918078     A.U. after   13 cycles
 E2 =    -0.9807418722D+00 EUMP2 =    -0.29970065994999D+03
 CCSD(T)
 CCSD(T)= -0.29975617941D+03

 Unable to determine electronic state:  an orbital has unidentified symmetry.
 Alpha  occ. eigenvalues --  -20.11654 -20.11636 -20.09403 -20.09402  -1.04619
 Alpha  occ. eigenvalues --   -1.01042  -0.73633  -0.60951  -0.25998  -0.22172
 Alpha  occ. eigenvalues --   -0.20887  -0.18782  -0.15791  -0.04193  -0.03158
 Alpha  occ. eigenvalues --    0.00445   0.04268   0.05926   0.39457
 Alpha virt. eigenvalues --    0.84182   1.10550   1.11839   1.17694   1.18799
 Alpha virt. eigenvalues --    1.19371   1.21992   1.25676   1.27266   1.38367
 Alpha virt. eigenvalues --    1.39068   1.44097   1.44364   1.55479   1.92819

  Beta  occ. eigenvalues --  -20.06208 -20.06197 -20.03514 -20.03514  -0.87763
  Beta  occ. eigenvalues --   -0.82542  -0.56874  -0.40007  -0.13962  -0.04066
  Beta  occ. eigenvalues --   -0.00137   0.00263   0.08322   0.09226   0.22250
  Beta virt. eigenvalues --    0.60068   0.60265   0.67414   0.88334   0.96745
  Beta virt. eigenvalues --    1.20361   1.24577   1.25868   1.26862   1.27190
  Beta virt. eigenvalues --    1.32491   1.35206   1.38506   1.40916   1.41299

 Mulliken charges and spin densities:
               1          2
     1  O   -0.329529   0.840966
     2  O   -0.670471   1.159034
     3  O   -0.670471   1.159034
     4  O   -0.329529   0.840966
 Sum of Mulliken charges =  -2.00000   4.00000

 Dipole moment (field-independent basis, Debye):
    X=             -0.0000    Y=             -0.0000    Z=              0.0000  Tot=              0.0000
 Quadrupole moment (field-independent basis, Debye-Ang):
   XX=            -25.1662   YY=            -23.7900   ZZ=            -63.2662
   XY=             -0.0000   XZ=              0.0000   YZ=             -0.0000

 947\PMP3-0=-299.6780775\MP4SDQ=-299.6954615\CCSD=-299.6994517\CCSD(T)=
 Normal termination of Gaussian 16 at Sat Jan  7 02:57:06 2023.
