 Gaussian 16, Revision A.03,
 Gaussian 16:  ES64L-G16RevA.03 25-Dec-2016

 ------------------------------------------------
 #p CCSD(T,MaxCyc=300)/cc-pVTZ Guess=Read SCF=XQC
 ------------------------------------------------

 ---------
 O2_O2_193
 ---------
 Symbolic Z-matrix:
 Charge = -2 Multiplicity = 5

                         Standard orientation:
 ---------------------------------------------------------------------
 Center     Atomic      Atomic             Coordinates (Angstroms)
 Number     Number       Type             X           Y           Z
 ---------------------------------------------------------------------
      1          8           0        0.000000    0.000000    2.158879
      2          8           0        0.000000    0.000000    3.511259
      3          8           0        0.000000    0.000000   -3.511259
      4          8           0        0.000000    0.000000   -2.158879
 ---------------------------------------------------------------------

 SCF Done:  E(UHF) =  -298.770419670     A.U. after   12 cycles
 E2 =    -0.1185747364D+01 EUMP2 =    -0.29995616703422D+03
 CCSD(T)
 CCSD(T)= -0.29992897474D+03

 Unable to determine electronic state:  an orbital has unidentified symmetry.
 Alpha  occ. eigenvalues --  -20.24262 -20.24262 -20.20621 -20.20621  -1.11444
 Alpha  occ. eigenvalues --   -1.11441  -0.75316  -0.75277  -0.30047  -0.30038
 Alpha  occ. eigenvalues --   -0.27357  -0.27348  -0.25397  -0.24864  -0.09427
 Alpha  occ. eigenvalues --   -0.09414  -0.06909  -0.06893   0.42791
 Alpha virt. eigenvalues --    0.54493   1.05076   1.09676   1.10805   1.11005
 Alpha virt. eigenvalues --    1.12167   1.12334   1.14089   1.19149   1.19456
 Alpha virt. eigenvalues --    1.19874   1.20640   1.21094   1.33781   1.33791

  Beta  occ. eigenvalues --  -20.18436 -20.18436 -20.15562 -20.15562  -0.95226
  Beta  occ. eigenvalues --   -0.95219  -0.56268  -0.56187  -0.16161  -0.16030
  Beta  occ. eigenvalues --   -0.10417  -0.10084  -0.03229  -0.03218   0.24609
  Beta virt. eigenvalues --    0.34168   0.53502   0.53576   0.76982   0.79716
  Beta virt. eigenvalues --    1.13936   1.17000   1.18306   1.18361   1.18517
  Beta virt. eigenvalues --    1.20414   1.20505   1.22822   1.27462   1.27852

 Mulliken charges and spin densities:
               1          2
     1  O   -0.386390   1.110685
     2  O   -0.613610   0.889315
     3  O   -0.613610   0.889315
     4  O   -0.386390   1.110685
 Sum of Mulliken charges =  -2.00000   4.00000

 Dipole moment (field-independent basis, Debye):
    X=             -0.0000    Y=              0.0000    Z=              0.0000  Tot=              0.0000
 Quadrupole moment (field-independent basis, Debye-Ang):
   XX=            -25.1459   YY=            -23.9832   ZZ=           -118.9992
   XY=             -0.0000   XZ=              0.0000   YZ=             -0.0000

 Normal termination of Gaussian 16 at Sat Jan  7 07:29:40 2023.
