 Gaussian 16, Revision A.03,
 Gaussian 16:  ES64L-G16RevA.03 25-Dec-2016

 ------------------------------------------------
 #p CCSD(T,MaxCyc=300)/cc-pVTZ Guess=Read SCF=XQC
 ------------------------------------------------

 ---------
 O2_O2_298
 ---------
 Symbolic Z-matrix:
 Charge = -2 Multiplicity = 5

                         Standard orientation:
 ---------------------------------------------------------------------
 Center     Atomic      Atomic             Coordinates (Angstroms)
 Number     Number       Type             X           Y           Z
 ---------------------------------------------------------------------
      1          8           0        0.000000    0.000000    2.902204
      2          8           0        0.000000    0.000000    4.254584
      3          8           0        0.000000    0.000000   -4.254584
      4          8           0        0.000000    0.000000   -2.902204
 ---------------------------------------------------------------------

 SCF Done:  E(UHF) =  -298.772425395     A.U. after    9 cycles
 E2 =    -0.1289062872D+01 EUMP2 =    -0.30006148826739D+03
 CCSD(T)
 CCSD(T)= -0.29995650167D+03

 Unable to determine electronic state:  an orbital has unidentified symmetry.
 Alpha  occ. eigenvalues --  -20.25452 -20.25452 -20.22712 -20.22711  -1.13211
 Alpha  occ. eigenvalues --   -1.13211  -0.77210  -0.77203  -0.31712  -0.31712
 Alpha  occ. eigenvalues --   -0.29061  -0.29061  -0.27365  -0.27175  -0.11272
 Alpha  occ. eigenvalues --   -0.11271  -0.08716  -0.08716   0.42378
 Alpha virt. eigenvalues --    0.50166   1.05517   1.05625   1.09087   1.09092
 Alpha virt. eigenvalues --    1.10445   1.10449   1.13574   1.13834   1.17755
 Alpha virt. eigenvalues --    1.17770   1.18948   1.18964   1.32009   1.32011

  Beta  occ. eigenvalues --  -20.19628 -20.19628 -20.17524 -20.17524  -0.96837
  Beta  occ. eigenvalues --   -0.96836  -0.57992  -0.57969  -0.17857  -0.17853
  Beta  occ. eigenvalues --   -0.12076  -0.11923  -0.04886  -0.04886   0.23940
  Beta virt. eigenvalues --    0.31348   0.51669   0.51670   0.76314   0.76364
  Beta virt. eigenvalues --    1.14236   1.14300   1.16645   1.16648   1.17270
  Beta virt. eigenvalues --    1.17310   1.18733   1.18734   1.25783   1.25786

 Mulliken charges and spin densities:
               1          2
     1  O   -0.413104   1.089750
     2  O   -0.586896   0.910250
     3  O   -0.586896   0.910250
     4  O   -0.413104   1.089750
 Sum of Mulliken charges =  -2.00000   4.00000

 Dipole moment (field-independent basis, Debye):
    X=             -0.0000    Y=              0.0000    Z=             -0.0000  Tot=              0.0000
 Quadrupole moment (field-independent basis, Debye-Ang):
   XX=            -25.1282   YY=            -23.9643   ZZ=           -164.7213
   XY=             -0.0000   XZ=              0.0000   YZ=             -0.0000

 Normal termination of Gaussian 16 at Sat Jan  7 10:12:43 2023.
