 Gaussian 16, Revision A.03,
 Gaussian 16:  ES64L-G16RevA.03 25-Dec-2016

 ------------------------------------------------
 #p CCSD(T,MaxCyc=300)/cc-pVTZ Guess=Read SCF=XQC
 ------------------------------------------------

 ---------
 O2_O2_268
 ---------
 Symbolic Z-matrix:
 Charge = -2 Multiplicity = 5

                         Standard orientation:
 ---------------------------------------------------------------------
 Center     Atomic      Atomic             Coordinates (Angstroms)
 Number     Number       Type             X           Y           Z
 ---------------------------------------------------------------------
      1          8           0        0.000000    0.000000    2.689826
      2          8           0        0.000000    0.000000    4.042206
      3          8           0        0.000000    0.000000   -4.042206
      4          8           0        0.000000    0.000000   -2.689826
 ---------------------------------------------------------------------

 SCF Done:  E(UHF) =  -298.770458331     A.U. after    9 cycles
 E2 =    -0.1263962360D+01 EUMP2 =    -0.30003442069089D+03
 CCSD(T)
 CCSD(T)= -0.29995005286D+03

 Unable to determine electronic state:  an orbital has unidentified symmetry.
 Alpha  occ. eigenvalues --  -20.25071 -20.25071 -20.22152 -20.22152  -1.12746
 Alpha  occ. eigenvalues --   -1.12746  -0.76724  -0.76714  -0.31261  -0.31260
 Alpha  occ. eigenvalues --   -0.28600  -0.28599  -0.26891  -0.26653  -0.10780
 Alpha  occ. eigenvalues --   -0.10779  -0.08235  -0.08235   0.42586
 Alpha virt. eigenvalues --    0.50998   1.05923   1.06299   1.09549   1.09560
 Alpha virt. eigenvalues --    1.10906   1.10915   1.14012   1.14470   1.18227
 Alpha virt. eigenvalues --    1.18256   1.19420   1.19450   1.32467   1.32470

  Beta  occ. eigenvalues --  -20.19228 -20.19227 -20.16992 -20.16992  -0.96375
  Beta  occ. eigenvalues --   -0.96373  -0.57519  -0.57490  -0.17378  -0.17368
  Beta  occ. eigenvalues --   -0.11619  -0.11432  -0.04439  -0.04439   0.24160
  Beta virt. eigenvalues --    0.32062   0.52158   0.52161   0.76756   0.76959
  Beta virt. eigenvalues --    1.14654   1.14895   1.17111   1.17117   1.17736
  Beta virt. eigenvalues --    1.17924   1.19185   1.19188   1.26253   1.26264

 Mulliken charges and spin densities:
               1          2
     1  O   -0.406419   1.095077
     2  O   -0.593581   0.904923
     3  O   -0.593581   0.904923
     4  O   -0.406419   1.095077
 Sum of Mulliken charges =  -2.00000   4.00000

 Dipole moment (field-independent basis, Debye):
    X=             -0.0000    Y=              0.0000    Z=              0.0000  Tot=              0.0000
 Quadrupole moment (field-independent basis, Debye-Ang):
   XX=            -25.1307   YY=            -23.9660   ZZ=           -150.6863
   XY=             -0.0000   XZ=              0.0000   YZ=             -0.0000

 Normal termination of Gaussian 16 at Sat Jan  7 09:27:22 2023.
