 Gaussian 16, Revision A.03,
 Gaussian 16:  ES64L-G16RevA.03 25-Dec-2016

 ------------------------------------------------
 #p CCSD(T,MaxCyc=300)/cc-pVTZ Guess=Read SCF=XQC
 ------------------------------------------------

 ---------
 O2_O2_163
 ---------
 Symbolic Z-matrix:
 Charge = -2 Multiplicity = 5

                         Standard orientation:
 ---------------------------------------------------------------------
 Center     Atomic      Atomic             Coordinates (Angstroms)
 Number     Number       Type             X           Y           Z
 ---------------------------------------------------------------------
      1          8           0        0.000000    0.000000    1.946500
      2          8           0        0.000000    0.000000    3.298880
      3          8           0        0.000000    0.000000   -3.298880
      4          8           0        0.000000    0.000000   -1.946500
 ---------------------------------------------------------------------

 SCF Done:  E(UHF) =  -298.775605437     A.U. after   16 cycles
 E2 =    -0.1145914263D+01 EUMP2 =    -0.29992151970005D+03
 CCSD(T)
 CCSD(T)= -0.29991835357D+03

 Unable to determine electronic state:  an orbital has unidentified symmetry.
 Alpha  occ. eigenvalues --  -20.24161 -20.24160 -20.19956 -20.19956  -1.10883
 Alpha  occ. eigenvalues --   -1.10875  -0.74668  -0.74583  -0.29572  -0.29547
 Alpha  occ. eigenvalues --   -0.26868  -0.26843  -0.24623  -0.23779  -0.08862
 Alpha  occ. eigenvalues --   -0.08824  -0.06356  -0.06309   0.42475
 Alpha virt. eigenvalues --    0.57034   1.03143   1.10916   1.11228   1.11808
 Alpha virt. eigenvalues --    1.12609   1.13098   1.13571   1.19760   1.20920
 Alpha virt. eigenvalues --    1.20990   1.22248   1.25933   1.34354   1.34410

  Beta  occ. eigenvalues --  -20.18402 -20.18401 -20.14961 -20.14961  -0.94857
  Beta  occ. eigenvalues --   -0.94842  -0.55791  -0.55640  -0.15751  -0.15442
  Beta  occ. eigenvalues --   -0.09965  -0.09519  -0.02748  -0.02718   0.24666
  Beta virt. eigenvalues --    0.35185   0.54042   0.54259   0.76515   0.81447
  Beta virt. eigenvalues --    1.11917   1.17599   1.18484   1.18797   1.19244
  Beta virt. eigenvalues --    1.20873   1.21143   1.27746   1.28954   1.29389

 Mulliken charges and spin densities:
               1          2
     1  O   -0.377152   1.119990
     2  O   -0.622848   0.880010
     3  O   -0.622848   0.880010
     4  O   -0.377152   1.119990
 Sum of Mulliken charges =  -2.00000   4.00000

 Dipole moment (field-independent basis, Debye):
    X=             -0.0000    Y=              0.0000    Z=             -0.0000  Tot=              0.0000
 Quadrupole moment (field-independent basis, Debye-Ang):
   XX=            -25.1591   YY=            -23.9988   ZZ=           -107.3488
   XY=             -0.0000   XZ=              0.0000   YZ=             -0.0000

 Normal termination of Gaussian 16 at Sat Jan  7 06:43:33 2023.
