 Gaussian 16, Revision A.03,
 Gaussian 16:  ES64L-G16RevA.03 25-Dec-2016

 ------------------------------------------------
 #p CCSD(T,MaxCyc=300)/cc-pVTZ Guess=Read SCF=XQC
 ------------------------------------------------

 ---------
 O2_O2_109
 ---------
 Symbolic Z-matrix:
 Charge = -2 Multiplicity = 5

                         Standard orientation:
 ---------------------------------------------------------------------
 Center     Atomic      Atomic             Coordinates (Angstroms)
 Number     Number       Type             X           Y           Z
 ---------------------------------------------------------------------
      1          8           0        0.000000    0.000000    1.564218
      2          8           0        0.000000    0.000000    2.916598
      3          8           0        0.000000    0.000000   -2.916598
      4          8           0        0.000000    0.000000   -1.564218
 ---------------------------------------------------------------------

 SCF Done:  E(UHF) =  -298.783307437     A.U. after   16 cycles
 E2 =    -0.1091736623D+01 EUMP2 =    -0.29987504405958D+03
 CCSD(T)
 CCSD(T)= -0.29989644669D+03

 Unable to determine electronic state:  an orbital has unidentified symmetry.
 Alpha  occ. eigenvalues --  -20.22931 -20.22930 -20.17988 -20.17988  -1.09190
 Alpha  occ. eigenvalues --   -1.09133  -0.72962  -0.72580  -0.27830  -0.27687
 Alpha  occ. eigenvalues --   -0.25313  -0.25166  -0.23119  -0.20942  -0.07320
 Alpha  occ. eigenvalues --   -0.07107  -0.04650  -0.04413   0.41745
 Alpha virt. eigenvalues --    0.62493   1.05082   1.11305   1.11826   1.13176
 Alpha virt. eigenvalues --    1.13498   1.14129   1.15399   1.19705   1.20914
 Alpha virt. eigenvalues --    1.25588   1.26905   1.35847   1.36186   1.50995

  Beta  occ. eigenvalues --  -20.17205 -20.17204 -20.12965 -20.12965  -0.93218
  Beta  occ. eigenvalues --   -0.93133  -0.54149  -0.53547  -0.14371  -0.13098
  Beta  occ. eigenvalues --   -0.08378  -0.07564  -0.00797  -0.00622   0.25049
  Beta virt. eigenvalues --    0.38712   0.55349   0.56331   0.78383   0.84948
  Beta virt. eigenvalues --    1.12899   1.18304   1.19635   1.19754   1.21299
  Beta virt. eigenvalues --    1.21916   1.23341   1.27707   1.30612   1.33720

 Mulliken charges and spin densities:
               1          2
     1  O   -0.364622   1.109835
     2  O   -0.635378   0.890165
     3  O   -0.635378   0.890165
     4  O   -0.364622   1.109835
 Sum of Mulliken charges =  -2.00000   4.00000

 Dipole moment (field-independent basis, Debye):
    X=             -0.0000    Y=              0.0000    Z=              0.0000  Tot=              0.0000
 Quadrupole moment (field-independent basis, Debye-Ang):
   XX=            -25.1974   YY=            -24.0317   ZZ=            -88.2367
   XY=             -0.0000   XZ=              0.0000   YZ=             -0.0000

 Normal termination of Gaussian 16 at Sat Jan  7 05:23:26 2023.
