 Gaussian 16, Revision A.03,
 Gaussian 16:  ES64L-G16RevA.03 25-Dec-2016

 ------------------------------------------------
 #p CCSD(T,MaxCyc=300)/cc-pVTZ Guess=Read SCF=XQC
 ------------------------------------------------

 ---------
 O2_O2_168
 ---------
 Symbolic Z-matrix:
 Charge = -2 Multiplicity = 5

                         Standard orientation:
 ---------------------------------------------------------------------
 Center     Atomic      Atomic             Coordinates (Angstroms)
 Number     Number       Type             X           Y           Z
 ---------------------------------------------------------------------
      1          8           0        0.000000    0.000000    1.981897
      2          8           0        0.000000    0.000000    3.334277
      3          8           0        0.000000    0.000000   -3.334277
      4          8           0        0.000000    0.000000   -1.981897
 ---------------------------------------------------------------------

 SCF Done:  E(UHF) =  -298.774521481     A.U. after   16 cycles
 E2 =    -0.1152625487D+01 EUMP2 =    -0.29992714696807D+03
 CCSD(T)
 CCSD(T)= -0.29992019355D+03

 Unable to determine electronic state:  an orbital has unidentified symmetry.
 Alpha  occ. eigenvalues --  -20.24173 -20.24173 -20.20078 -20.20077  -1.10983
 Alpha  occ. eigenvalues --   -1.10976  -0.74784  -0.74710  -0.29656  -0.29635
 Alpha  occ. eigenvalues --   -0.26954  -0.26933  -0.24760  -0.23982  -0.08962
 Alpha  occ. eigenvalues --   -0.08930  -0.06454  -0.06415   0.42549
 Alpha virt. eigenvalues --    0.56554   1.03480   1.10765   1.11165   1.11656
 Alpha virt. eigenvalues --    1.12541   1.12954   1.13648   1.19725   1.20762
 Alpha virt. eigenvalues --    1.20891   1.22012   1.24457   1.34253   1.34298

  Beta  occ. eigenvalues --  -20.18402 -20.18401 -20.15071 -20.15071  -0.94921
  Beta  occ. eigenvalues --   -0.94908  -0.55875  -0.55740  -0.15821  -0.15551
  Beta  occ. eigenvalues --   -0.10045  -0.09622  -0.02834  -0.02809   0.24659
  Beta virt. eigenvalues --    0.34998   0.53949   0.54133   0.76578   0.81148
  Beta virt. eigenvalues --    1.12272   1.17516   1.18437   1.18728   1.19108
  Beta virt. eigenvalues --    1.20797   1.21025   1.27715   1.27999   1.28727

 Mulliken charges and spin densities:
               1          2
     1  O   -0.378778   1.118243
     2  O   -0.621222   0.881757
     3  O   -0.621222   0.881757
     4  O   -0.378778   1.118243
 Sum of Mulliken charges =  -2.00000   4.00000

 Dipole moment (field-independent basis, Debye):
    X=             -0.0000    Y=              0.0000    Z=              0.0000  Tot=              0.0000
 Quadrupole moment (field-independent basis, Debye-Ang):
   XX=            -25.1566   YY=            -23.9960   ZZ=           -109.2560
   XY=             -0.0000   XZ=              0.0000   YZ=             -0.0000

 Normal termination of Gaussian 16 at Sat Jan  7 06:50:55 2023.
