 Gaussian 16, Revision A.03,
 Gaussian 16:  ES64L-G16RevA.03 25-Dec-2016

 ------------------------------------------------
 #p CCSD(T,MaxCyc=300)/cc-pVTZ Guess=Read SCF=XQC
 ------------------------------------------------

 --------
 O2_O2_81
 --------
 Symbolic Z-matrix:
 Charge = -2 Multiplicity = 5

                         Standard orientation:
 ---------------------------------------------------------------------
 Center     Atomic      Atomic             Coordinates (Angstroms)
 Number     Number       Type             X           Y           Z
 ---------------------------------------------------------------------
      1          8           0        0.000000    0.000000    1.365998
      2          8           0        0.000000    0.000000    2.718378
      3          8           0        0.000000    0.000000   -2.718378
      4          8           0        0.000000    0.000000   -1.365998
 ---------------------------------------------------------------------

 SCF Done:  E(UHF) =  -298.781228566     A.U. after   14 cycles
 E2 =    -0.1071108359D+01 EUMP2 =    -0.29985233692491D+03
 CCSD(T)
 CCSD(T)= -0.29988225808D+03

 Unable to determine electronic state:  an orbital has unidentified symmetry.
 Alpha  occ. eigenvalues --  -20.20568 -20.20566 -20.16650 -20.16650  -1.07736
 Alpha  occ. eigenvalues --   -1.07582  -0.71777  -0.70878  -0.26091  -0.25782
 Alpha  occ. eigenvalues --   -0.23838  -0.23480  -0.22573  -0.18838  -0.06079
 Alpha  occ. eigenvalues --   -0.05520  -0.03212  -0.02678   0.41885
 Alpha virt. eigenvalues --    0.65050   1.10699   1.12382   1.13414   1.13473
 Alpha virt. eigenvalues --    1.14193   1.15410   1.16993   1.19530   1.21111
 Alpha virt. eigenvalues --    1.30262   1.31313   1.36970   1.37549   1.67824

  Beta  occ. eigenvalues --  -20.14826 -20.14824 -20.11413 -20.11413  -0.91367
  Beta  occ. eigenvalues --   -0.91137  -0.52819  -0.51423  -0.13249  -0.10516
  Beta  occ. eigenvalues --   -0.07164  -0.06106   0.00820   0.01349   0.25541
  Beta virt. eigenvalues --    0.42586   0.56415   0.58153   0.81163   0.87255
  Beta virt. eigenvalues --    1.18495   1.18609   1.20724   1.22170   1.22367
  Beta virt. eigenvalues --    1.22471   1.25417   1.27695   1.31126   1.38546

 Mulliken charges and spin densities:
               1          2
     1  O   -0.375840   1.046446
     2  O   -0.624160   0.953554
     3  O   -0.624160   0.953554
     4  O   -0.375840   1.046446
 Sum of Mulliken charges =  -2.00000   4.00000

 Dipole moment (field-independent basis, Debye):
    X=             -0.0000    Y=              0.0000    Z=              0.0000  Tot=              0.0000
 Quadrupole moment (field-independent basis, Debye-Ang):
   XX=            -25.2322   YY=            -24.0350   ZZ=            -79.4495
   XY=             -0.0000   XZ=              0.0000   YZ=             -0.0000

 Normal termination of Gaussian 16 at Sat Jan  7 04:45:05 2023.
