 Gaussian 16, Revision A.03,
 Gaussian 16:  ES64L-G16RevA.03 25-Dec-2016

 ------------------------------------------------
 #p CCSD(T,MaxCyc=300)/cc-pVTZ Guess=Read SCF=XQC
 ------------------------------------------------

 ---------
 O2_O2_122
 ---------
 Symbolic Z-matrix:
 Charge = -2 Multiplicity = 5

                         Standard orientation:
 ---------------------------------------------------------------------
 Center     Atomic      Atomic             Coordinates (Angstroms)
 Number     Number       Type             X           Y           Z
 ---------------------------------------------------------------------
      1          8           0        0.000000    0.000000    1.656249
      2          8           0        0.000000    0.000000    3.008629
      3          8           0        0.000000    0.000000   -3.008629
      4          8           0        0.000000    0.000000   -1.656249
 ---------------------------------------------------------------------

 SCF Done:  E(UHF) =  -298.783054925     A.U. after   16 cycles
 E2 =    -0.1100749644D+01 EUMP2 =    -0.29988380456927D+03
 CCSD(T)
 CCSD(T)= -0.29990217723D+03

 Unable to determine electronic state:  an orbital has unidentified symmetry.
 Alpha  occ. eigenvalues --  -20.23568 -20.23567 -20.18557 -20.18557  -1.09739
 Alpha  occ. eigenvalues --   -1.09703  -0.73456  -0.73194  -0.28468  -0.28371
 Alpha  occ. eigenvalues --   -0.25839  -0.25743  -0.23451  -0.21737  -0.07772
 Alpha  occ. eigenvalues --   -0.07632  -0.05202  -0.05039   0.41821
 Alpha virt. eigenvalues --    0.61274   1.03092   1.11423   1.11667   1.13075
 Alpha virt. eigenvalues --    1.13430   1.13481   1.14711   1.19791   1.20927
 Alpha virt. eigenvalues --    1.24006   1.25344   1.35374   1.35635   1.43599

  Beta  occ. eigenvalues --  -20.17857 -20.17856 -20.13590 -20.13589  -0.93852
  Beta  occ. eigenvalues --   -0.93798  -0.54707  -0.54290  -0.14843  -0.13944
  Beta  occ. eigenvalues --   -0.08912  -0.08206  -0.01518  -0.01408   0.24888
  Beta virt. eigenvalues --    0.37468   0.54976   0.55696   0.77409   0.84018
  Beta virt. eigenvalues --    1.11402   1.18165   1.19234   1.19446   1.20730
  Beta virt. eigenvalues --    1.21631   1.22588   1.27766   1.30614   1.32053

 Mulliken charges and spin densities:
               1          2
     1  O   -0.364256   1.123867
     2  O   -0.635744   0.876133
     3  O   -0.635744   0.876133
     4  O   -0.364256   1.123867
 Sum of Mulliken charges =  -2.00000   4.00000

 Dipole moment (field-independent basis, Debye):
    X=             -0.0000    Y=              0.0000    Z=              0.0000  Tot=              0.0000
 Quadrupole moment (field-independent basis, Debye-Ang):
   XX=            -25.1852   YY=            -24.0228   ZZ=            -92.5856
   XY=             -0.0000   XZ=              0.0000   YZ=             -0.0000

 Normal termination of Gaussian 16 at Sat Jan  7 05:42:44 2023.
