 Gaussian 16, Revision A.03,
 Gaussian 16:  ES64L-G16RevA.03 25-Dec-2016

 ------------------------------------------------
 #p CCSD(T,MaxCyc=300)/cc-pVTZ Guess=Read SCF=XQC
 ------------------------------------------------

 ---------
 O2_O2_216
 ---------
 Symbolic Z-matrix:
 Charge = -2 Multiplicity = 5

                         Standard orientation:
 ---------------------------------------------------------------------
 Center     Atomic      Atomic             Coordinates (Angstroms)
 Number     Number       Type             X           Y           Z
 ---------------------------------------------------------------------
      1          8           0        0.000000    0.000000    2.321703
      2          8           0        0.000000    0.000000    3.674083
      3          8           0        0.000000    0.000000   -3.674083
      4          8           0        0.000000    0.000000   -2.321703
 ---------------------------------------------------------------------

 SCF Done:  E(UHF) =  -298.768912994     A.U. after   12 cycles
 E2 =    -0.1213248295D+01 EUMP2 =    -0.29998216128888D+03
 CCSD(T)
 CCSD(T)= -0.29993631214D+03

 Unable to determine electronic state:  an orbital has unidentified symmetry.
 Alpha  occ. eigenvalues --  -20.24443 -20.24443 -20.21096 -20.21096  -1.11853
 Alpha  occ. eigenvalues --   -1.11852  -0.75772  -0.75749  -0.30414  -0.30410
 Alpha  occ. eigenvalues --   -0.27734  -0.27730  -0.25913  -0.25518  -0.09846
 Alpha  occ. eigenvalues --   -0.09840  -0.07320  -0.07313   0.42833
 Alpha virt. eigenvalues --    0.53080   1.05897   1.08397   1.10427   1.10508
 Alpha virt. eigenvalues --    1.11784   1.11851   1.14346   1.16658   1.19107
 Alpha virt. eigenvalues --    1.19279   1.20298   1.20484   1.33361   1.33364

  Beta  occ. eigenvalues --  -20.18592 -20.18592 -20.15998 -20.15998  -0.95546
  Beta  occ. eigenvalues --   -0.95542  -0.56641  -0.56586  -0.16508  -0.16446
  Beta  occ. eigenvalues --   -0.10773  -0.10500  -0.03596  -0.03592   0.24512
  Beta virt. eigenvalues --    0.33477   0.53087   0.53117   0.77166   0.78600
  Beta virt. eigenvalues --    1.14741   1.16356   1.17987   1.18048   1.18250
  Beta virt. eigenvalues --    1.20041   1.20076   1.20203   1.27123   1.27269

 Mulliken charges and spin densities:
               1          2
     1  O   -0.392936   1.105338
     2  O   -0.607064   0.894662
     3  O   -0.607064   0.894662
     4  O   -0.392936   1.105338
 Sum of Mulliken charges =  -2.00000   4.00000

 Dipole moment (field-independent basis, Debye):
    X=             -0.0000    Y=              0.0000    Z=              0.0000  Tot=              0.0000
 Quadrupole moment (field-independent basis, Debye-Ang):
   XX=            -25.1390   YY=            -23.9748   ZZ=           -128.2698
   XY=             -0.0000   XZ=              0.0000   YZ=             -0.0000

 Normal termination of Gaussian 16 at Sat Jan  7 08:04:45 2023.
