 Gaussian 16, Revision A.03,
 Gaussian 16:  ES64L-G16RevA.03 25-Dec-2016

 ------------------------------------------------
 #p CCSD(T,MaxCyc=300)/cc-pVTZ Guess=Read SCF=XQC
 ------------------------------------------------

 ---------
 O2_O2_139
 ---------
 Symbolic Z-matrix:
 Charge = -2 Multiplicity = 5

                         Standard orientation:
 ---------------------------------------------------------------------
 Center     Atomic      Atomic             Coordinates (Angstroms)
 Number     Number       Type             X           Y           Z
 ---------------------------------------------------------------------
      1          8           0        0.000000    0.000000    1.776597
      2          8           0        0.000000    0.000000    3.128977
      3          8           0        0.000000    0.000000   -3.128977
      4          8           0        0.000000    0.000000   -1.776597
 ---------------------------------------------------------------------

 SCF Done:  E(UHF) =  -298.780837473     A.U. after   16 cycles
 E2 =    -0.1116387058D+01 EUMP2 =    -0.29989722453096D+03
 CCSD(T)
 CCSD(T)= -0.29990915724D+03

 Unable to determine electronic state:  an orbital has unidentified symmetry.
 Alpha  occ. eigenvalues --  -20.23988 -20.23987 -20.19237 -20.19237  -1.10306
 Alpha  occ. eigenvalues --   -1.10286  -0.74024  -0.73861  -0.29055  -0.28999
 Alpha  occ. eigenvalues --   -0.26362  -0.26307  -0.23932  -0.22665  -0.08293
 Alpha  occ. eigenvalues --   -0.08211  -0.05779  -0.05680   0.42059
 Alpha virt. eigenvalues --    0.59529   1.02229   1.11361   1.11497   1.12692
 Alpha virt. eigenvalues --    1.12905   1.13380   1.13936   1.19831   1.20961
 Alpha virt. eigenvalues --    1.22454   1.23764   1.34603   1.35042   1.35399

  Beta  occ. eigenvalues --  -20.18277 -20.18276 -20.14282 -20.14282  -0.94420
  Beta  occ. eigenvalues --   -0.94389  -0.55270  -0.55003  -0.15319  -0.14741
  Beta  occ. eigenvalues --   -0.09464  -0.08884  -0.02190  -0.02127   0.24746
  Beta virt. eigenvalues --    0.36301   0.54544   0.54999   0.76647   0.82912
  Beta virt. eigenvalues --    1.10851   1.17946   1.18832   1.19142   1.20029
  Beta virt. eigenvalues --    1.21278   1.21852   1.27804   1.30438   1.30674

 Mulliken charges and spin densities:
               1          2
     1  O   -0.368939   1.126910
     2  O   -0.631061   0.873090
     3  O   -0.631061   0.873090
     4  O   -0.368939   1.126910
 Sum of Mulliken charges =  -2.00000   4.00000

 Dipole moment (field-independent basis, Debye):
    X=             -0.0000    Y=              0.0000    Z=             -0.0000  Tot=              0.0000
 Quadrupole moment (field-independent basis, Debye-Ang):
   XX=            -25.1728   YY=            -24.0125   ZZ=            -98.4799
   XY=             -0.0000   XZ=              0.0000   YZ=             -0.0000

 90618\PMP3-0=-299.861607\MP4SDQ=-299.794704\CCSD=-299.8095486\CCSD(T)=
 Normal termination of Gaussian 16 at Sat Jan  7 06:08:09 2023.
