 Gaussian 16, Revision A.03,
 Gaussian 16:  ES64L-G16RevA.03 25-Dec-2016

 ------------------------------------------------
 #p CCSD(T,MaxCyc=300)/cc-pVTZ Guess=Read SCF=XQC
 ------------------------------------------------

 ---------
 O2_O2_140
 ---------
 Symbolic Z-matrix:
 Charge = -2 Multiplicity = 5

                         Standard orientation:
 ---------------------------------------------------------------------
 Center     Atomic      Atomic             Coordinates (Angstroms)
 Number     Number       Type             X           Y           Z
 ---------------------------------------------------------------------
      1          8           0        0.000000    0.000000    1.783676
      2          8           0        0.000000    0.000000    3.136056
      3          8           0        0.000000    0.000000   -3.136056
      4          8           0        0.000000    0.000000   -1.783676
 ---------------------------------------------------------------------

 SCF Done:  E(UHF) =  -298.780649772     A.U. after   16 cycles
 E2 =    -0.1117467821D+01 EUMP2 =    -0.29989811759326D+03
 CCSD(T)
 CCSD(T)= -0.29990955355D+03

 Unable to determine electronic state:  an orbital has unidentified symmetry.
 Alpha  occ. eigenvalues --  -20.24003 -20.24002 -20.19272 -20.19272  -1.10335
 Alpha  occ. eigenvalues --   -1.10316  -0.74054  -0.73896  -0.29083  -0.29028
 Alpha  occ. eigenvalues --   -0.26388  -0.26334  -0.23961  -0.22716  -0.08320
 Alpha  occ. eigenvalues --   -0.08241  -0.05808  -0.05712   0.42076
 Alpha virt. eigenvalues --    0.59423   1.02227   1.11350   1.11487   1.12649
 Alpha virt. eigenvalues --    1.12894   1.13382   1.13896   1.19832   1.20962
 Alpha virt. eigenvalues --    1.22378   1.23686   1.34370   1.35011   1.35156

  Beta  occ. eigenvalues --  -20.18290 -20.18289 -20.14317 -20.14317  -0.94445
  Beta  occ. eigenvalues --   -0.94415  -0.55297  -0.55037  -0.15341  -0.14779
  Beta  occ. eigenvalues --   -0.09491  -0.08918  -0.02221  -0.02159   0.24740
  Beta virt. eigenvalues --    0.36244   0.54520   0.54962   0.76621   0.82850
  Beta virt. eigenvalues --    1.10860   1.17933   1.18813   1.19127   1.19992
  Beta virt. eigenvalues --    1.21259   1.21816   1.27804   1.30360   1.30677

 Mulliken charges and spin densities:
               1          2
     1  O   -0.369278   1.126774
     2  O   -0.630722   0.873226
     3  O   -0.630722   0.873226
     4  O   -0.369278   1.126774
 Sum of Mulliken charges =  -2.00000   4.00000

 Dipole moment (field-independent basis, Debye):
    X=             -0.0000    Y=              0.0000    Z=              0.0000  Tot=              0.0000
 Quadrupole moment (field-independent basis, Debye-Ang):
   XX=            -25.1722   YY=            -24.0120   ZZ=            -98.8375
   XY=             -0.0000   XZ=              0.0000   YZ=             -0.0000

 Normal termination of Gaussian 16 at Sat Jan  7 06:09:35 2023.
