 Gaussian 16, Revision A.03,
 Gaussian 16:  ES64L-G16RevA.03 25-Dec-2016

 ------------------------------------------------
 #p CCSD(T,MaxCyc=300)/cc-pVTZ Guess=Read SCF=XQC
 ------------------------------------------------

 --------
 O2_O2_29
 --------
 Symbolic Z-matrix:
 Charge = -2 Multiplicity = 5

                         Standard orientation:
 ---------------------------------------------------------------------
 Center     Atomic      Atomic             Coordinates (Angstroms)
 Number     Number       Type             X           Y           Z
 ---------------------------------------------------------------------
      1          8           0        0.000000    0.000000    0.997875
      2          8           0        0.000000    0.000000    2.350255
      3          8           0        0.000000    0.000000   -2.350255
      4          8           0        0.000000    0.000000   -0.997875
 ---------------------------------------------------------------------

 SCF Done:  E(UHF) =  -298.770371775     A.U. after   13 cycles
 E2 =    -0.1017578652D+01 EUMP2 =    -0.29978795042658D+03
 CCSD(T)
 CCSD(T)= -0.29983537732D+03

 Unable to determine electronic state:  an orbital has unidentified symmetry.
 Alpha  occ. eigenvalues --  -20.15358 -20.15351 -20.12829 -20.12829  -1.05126
 Alpha  occ. eigenvalues --   -1.03989  -0.70896  -0.65893  -0.23483  -0.23165
 Alpha  occ. eigenvalues --   -0.21752  -0.21245  -0.19294  -0.11881  -0.03631
 Alpha  occ. eigenvalues --   -0.00620  -0.00564   0.01822   0.41568
 Alpha virt. eigenvalues --    0.73177   1.10008   1.12593   1.15300   1.16001
 Alpha virt. eigenvalues --    1.17802   1.20021   1.21607   1.23627   1.38536
 Alpha virt. eigenvalues --    1.39051   1.39903   1.40424   1.45119   1.89804

  Beta  occ. eigenvalues --  -20.09626 -20.09622 -20.07219 -20.07219  -0.87900
  Beta  occ. eigenvalues --   -0.86313  -0.52724  -0.45460  -0.13030  -0.04929
  Beta  occ. eigenvalues --   -0.02783  -0.01984   0.02239   0.05592   0.24839
  Beta virt. eigenvalues --    0.52646   0.58623   0.63312   0.86210   0.92509
  Beta virt. eigenvalues --    1.20658   1.20878   1.23974   1.24766   1.24997
  Beta virt. eigenvalues --    1.29613   1.30865   1.34718   1.40479   1.41188

 Mulliken charges and spin densities:
               1          2
     1  O   -0.357122   0.925874
     2  O   -0.642878   1.074126
     3  O   -0.642878   1.074126
     4  O   -0.357122   0.925874
 Sum of Mulliken charges =  -2.00000   4.00000

 Dipole moment (field-independent basis, Debye):
    X=             -0.0000    Y=             -0.0000    Z=             -0.0000  Tot=              0.0000
 Quadrupole moment (field-independent basis, Debye-Ang):
   XX=            -25.2965   YY=            -23.9824   ZZ=            -67.4552
   XY=             -0.0000   XZ=              0.0000   YZ=             -0.0000

 189\PMP3-0=-299.7558621\MP4SDQ=-299.7672645\CCSD=-299.7674217\CCSD(T)=
 Normal termination of Gaussian 16 at Sat Jan  7 03:33:09 2023.
