 Gaussian 16, Revision A.03,
 Gaussian 16:  ES64L-G16RevA.03 25-Dec-2016

 ------------------------------------------------
 #p CCSD(T,MaxCyc=300)/cc-pVTZ Guess=Read SCF=XQC
 ------------------------------------------------

 ---------
 O2_O2_154
 ---------
 Symbolic Z-matrix:
 Charge = -2 Multiplicity = 5

                         Standard orientation:
 ---------------------------------------------------------------------
 Center     Atomic      Atomic             Coordinates (Angstroms)
 Number     Number       Type             X           Y           Z
 ---------------------------------------------------------------------
      1          8           0        0.000000    0.000000    1.882787
      2          8           0        0.000000    0.000000    3.235167
      3          8           0        0.000000    0.000000   -3.235167
      4          8           0        0.000000    0.000000   -1.882787
 ---------------------------------------------------------------------

 SCF Done:  E(UHF) =  -298.777648717     A.U. after   16 cycles
 E2 =    -0.1134137361D+01 EUMP2 =    -0.29991178607802D+03
 CCSD(T)
 CCSD(T)= -0.29991497776D+03

 Unable to determine electronic state:  an orbital has unidentified symmetry.
 Alpha  occ. eigenvalues --  -20.24127 -20.24127 -20.19717 -20.19716  -1.10690
 Alpha  occ. eigenvalues --   -1.10678  -0.74446  -0.74338  -0.29407  -0.29372
 Alpha  occ. eigenvalues --   -0.26701  -0.26667  -0.24368  -0.23389  -0.08669
 Alpha  occ. eigenvalues --   -0.08617  -0.06164  -0.06102   0.42325
 Alpha virt. eigenvalues --    0.57943   1.02615   1.11134   1.11335   1.12107
 Alpha virt. eigenvalues --    1.12726   1.13381   1.13462   1.19805   1.20954
 Alpha virt. eigenvalues --    1.21459   1.22735   1.28961   1.34552   1.34625

  Beta  occ. eigenvalues --  -20.18390 -20.18390 -20.14741 -20.14741  -0.94726
  Beta  occ. eigenvalues --   -0.94706  -0.55623  -0.55438  -0.15612  -0.15221
  Beta  occ. eigenvalues --   -0.09805  -0.09315  -0.02574  -0.02534   0.24684
  Beta virt. eigenvalues --    0.35553   0.54217   0.54507   0.76461   0.81991
  Beta virt. eigenvalues --    1.11351   1.17737   1.18588   1.18921   1.19511
  Beta virt. eigenvalues --    1.21015   1.21376   1.27785   1.29424   1.30690

 Mulliken charges and spin densities:
               1          2
     1  O   -0.374123   1.123119
     2  O   -0.625877   0.876881
     3  O   -0.625877   0.876881
     4  O   -0.374123   1.123119
 Sum of Mulliken charges =  -2.00000   4.00000

 Dipole moment (field-independent basis, Debye):
    X=             -0.0000    Y=              0.0000    Z=             -0.0000  Tot=              0.0000
 Quadrupole moment (field-independent basis, Debye-Ang):
   XX=            -25.1639   YY=            -24.0040   ZZ=           -103.9603
   XY=             -0.0000   XZ=              0.0000   YZ=             -0.0000

 Normal termination of Gaussian 16 at Sat Jan  7 06:30:12 2023.
