 Gaussian 16, Revision A.03,
 Gaussian 16:  ES64L-G16RevA.03 25-Dec-2016

 ------------------------------------------------
 #p CCSD(T,MaxCyc=300)/cc-pVTZ Guess=Read SCF=XQC
 ------------------------------------------------

 ---------
 O2_O2_144
 ---------
 Symbolic Z-matrix:
 Charge = -2 Multiplicity = 5

                         Standard orientation:
 ---------------------------------------------------------------------
 Center     Atomic      Atomic             Coordinates (Angstroms)
 Number     Number       Type             X           Y           Z
 ---------------------------------------------------------------------
      1          8           0        0.000000    0.000000    1.811994
      2          8           0        0.000000    0.000000    3.164374
      3          8           0        0.000000    0.000000   -3.164374
      4          8           0        0.000000    0.000000   -1.811994
 ---------------------------------------------------------------------

 SCF Done:  E(UHF) =  -298.779853111     A.U. after   16 cycles
 E2 =    -0.1121953731D+01 EUMP2 =    -0.29990180684290D+03
 CCSD(T)
 CCSD(T)= -0.29991112725D+03

 Unable to determine electronic state:  an orbital has unidentified symmetry.
 Alpha  occ. eigenvalues --  -20.24052 -20.24051 -20.19410 -20.19409  -1.10444
 Alpha  occ. eigenvalues --   -1.10428  -0.74172  -0.74031  -0.29186  -0.29138
 Alpha  occ. eigenvalues --   -0.26486  -0.26439  -0.24078  -0.22916  -0.08427
 Alpha  occ. eigenvalues --   -0.08356  -0.05918  -0.05833   0.42146
 Alpha virt. eigenvalues --    0.58998   1.02264   1.11303   1.11445   1.12484
 Alpha virt. eigenvalues --    1.12848   1.13393   1.13738   1.19829   1.20964
 Alpha virt. eigenvalues --    1.22088   1.23387   1.32851   1.34834   1.34893

  Beta  occ. eigenvalues --  -20.18334 -20.18333 -20.14450 -20.14450  -0.94538
  Beta  occ. eigenvalues --   -0.94512  -0.55401  -0.55165  -0.15428  -0.14920
  Beta  occ. eigenvalues --   -0.09591  -0.09043  -0.02335  -0.02281   0.24719
  Beta virt. eigenvalues --    0.36028   0.54429   0.54823   0.76538   0.82602
  Beta virt. eigenvalues --    1.10936   1.17878   1.18740   1.19066   1.19845
  Beta virt. eigenvalues --    1.21185   1.21679   1.27803   1.30063   1.30686

 Mulliken charges and spin densities:
               1          2
     1  O   -0.370655   1.126017
     2  O   -0.629345   0.873983
     3  O   -0.629345   0.873983
     4  O   -0.370655   1.126017
 Sum of Mulliken charges =  -2.00000   4.00000

 Dipole moment (field-independent basis, Debye):
    X=             -0.0000    Y=              0.0000    Z=             -0.0000  Tot=              0.0000
 Quadrupole moment (field-independent basis, Debye-Ang):
   XX=            -25.1697   YY=            -24.0097   ZZ=           -100.2796
   XY=             -0.0000   XZ=              0.0000   YZ=             -0.0000

 Normal termination of Gaussian 16 at Sat Jan  7 06:15:26 2023.
