 Gaussian 16, Revision A.03,
 Gaussian 16:  ES64L-G16RevA.03 25-Dec-2016

 ------------------------------------------------
 #p CCSD(T,MaxCyc=300)/cc-pVTZ Guess=Read SCF=XQC
 ------------------------------------------------

 ---------
 O2_O2_151
 ---------
 Symbolic Z-matrix:
 Charge = -2 Multiplicity = 5

                         Standard orientation:
 ---------------------------------------------------------------------
 Center     Atomic      Atomic             Coordinates (Angstroms)
 Number     Number       Type             X           Y           Z
 ---------------------------------------------------------------------
      1          8           0        0.000000    0.000000    1.861548
      2          8           0        0.000000    0.000000    3.213929
      3          8           0        0.000000    0.000000   -3.213929
      4          8           0        0.000000    0.000000   -1.861548
 ---------------------------------------------------------------------

 SCF Done:  E(UHF) =  -298.778329861     A.U. after   16 cycles
 E2 =    -0.1130357743D+01 EUMP2 =    -0.29990868760407D+03
 CCSD(T)
 CCSD(T)= -0.29991383540D+03

 Unable to determine electronic state:  an orbital has unidentified symmetry.
 Alpha  occ. eigenvalues --  -20.24110 -20.24110 -20.19630 -20.19629  -1.10620
 Alpha  occ. eigenvalues --   -1.10607  -0.74367  -0.74250  -0.29345  -0.29307
 Alpha  occ. eigenvalues --   -0.26640  -0.26603  -0.24282  -0.23251  -0.08599
 Alpha  occ. eigenvalues --   -0.08543  -0.06095  -0.06026   0.42272
 Alpha virt. eigenvalues --    0.58256   1.02477   1.11193   1.11369   1.12215
 Alpha virt. eigenvalues --    1.12764   1.13435   1.13483   1.19816   1.20960
 Alpha virt. eigenvalues --    1.21635   1.22917   1.30075   1.34625   1.34702

  Beta  occ. eigenvalues --  -20.18380 -20.18379 -20.14659 -20.14659  -0.94675
  Beta  occ. eigenvalues --   -0.94654  -0.55561  -0.55362  -0.15561  -0.15138
  Beta  occ. eigenvalues --   -0.09746  -0.09239  -0.02509  -0.02465   0.24693
  Beta virt. eigenvalues --    0.35687   0.54278   0.54597   0.76466   0.82173
  Beta virt. eigenvalues --    1.11197   1.17780   1.18630   1.18964   1.19606
  Beta virt. eigenvalues --    1.21064   1.21462   1.27793   1.29602   1.30692

 Mulliken charges and spin densities:
               1          2
     1  O   -0.373089   1.124092
     2  O   -0.626911   0.875908
     3  O   -0.626911   0.875908
     4  O   -0.373089   1.124092
 Sum of Mulliken charges =  -2.00000   4.00000

 Dipole moment (field-independent basis, Debye):
    X=             -0.0000    Y=              0.0000    Z=              0.0000  Tot=              0.0000
 Quadrupole moment (field-independent basis, Debye-Ang):
   XX=            -25.1656   YY=            -24.0057   ZZ=           -102.8457
   XY=             -0.0000   XZ=              0.0000   YZ=             -0.0000

 Normal termination of Gaussian 16 at Sat Jan  7 06:25:51 2023.
