 Gaussian 16, Revision A.03,
 Gaussian 16:  ES64L-G16RevA.03 25-Dec-2016

 ------------------------------------------------
 #p CCSD(T,MaxCyc=300)/cc-pVTZ Guess=Read SCF=XQC
 ------------------------------------------------

 ---------
 O2_O2_267
 ---------
 Symbolic Z-matrix:
 Charge = -2 Multiplicity = 5

                         Standard orientation:
 ---------------------------------------------------------------------
 Center     Atomic      Atomic             Coordinates (Angstroms)
 Number     Number       Type             X           Y           Z
 ---------------------------------------------------------------------
      1          8           0        0.000000    0.000000    2.682746
      2          8           0        0.000000    0.000000    4.035126
      3          8           0        0.000000    0.000000   -4.035126
      4          8           0        0.000000    0.000000   -2.682746
 ---------------------------------------------------------------------

 SCF Done:  E(UHF) =  -298.770397609     A.U. after   15 cycles
 E2 =    -0.1263092767D+01 EUMP2 =    -0.30003349037593D+03
 CCSD(T)
 CCSD(T)= -0.29994982194D+03

 Unable to determine electronic state:  an orbital has unidentified symmetry.
 Alpha  occ. eigenvalues --  -20.25058 -20.25058 -20.22133 -20.22133  -1.12730
 Alpha  occ. eigenvalues --   -1.12730  -0.76707  -0.76697  -0.31245  -0.31244
 Alpha  occ. eigenvalues --   -0.28584  -0.28583  -0.26874  -0.26635  -0.10762
 Alpha  occ. eigenvalues --   -0.10762  -0.08219  -0.08218   0.42592
 Alpha virt. eigenvalues --    0.51029   1.05934   1.06326   1.09565   1.09576
 Alpha virt. eigenvalues --    1.10923   1.10932   1.14025   1.14495   1.18244
 Alpha virt. eigenvalues --    1.18273   1.19436   1.19468   1.32483   1.32486

  Beta  occ. eigenvalues --  -20.19214 -20.19214 -20.16973 -20.16973  -0.96359
  Beta  occ. eigenvalues --   -0.96357  -0.57503  -0.57473  -0.17361  -0.17352
  Beta  occ. eigenvalues --   -0.11603  -0.11415  -0.04424  -0.04423   0.24167
  Beta virt. eigenvalues --    0.32087   0.52175   0.52178   0.76770   0.76982
  Beta virt. eigenvalues --    1.14666   1.14917   1.17127   1.17133   1.17751
  Beta virt. eigenvalues --    1.17948   1.19201   1.19204   1.26269   1.26281

 Mulliken charges and spin densities:
               1          2
     1  O   -0.406188   1.095254
     2  O   -0.593812   0.904746
     3  O   -0.593812   0.904746
     4  O   -0.406188   1.095254
 Sum of Mulliken charges =  -2.00000   4.00000

 Dipole moment (field-independent basis, Debye):
    X=             -0.0000    Y=              0.0000    Z=             -0.0000  Tot=              0.0000
 Quadrupole moment (field-independent basis, Debye-Ang):
   XX=            -25.1308   YY=            -23.9661   ZZ=           -150.2325
   XY=             -0.0000   XZ=              0.0000   YZ=             -0.0000

 Normal termination of Gaussian 16 at Sat Jan  7 09:25:39 2023.
