 Gaussian 16, Revision A.03,
 Gaussian 16:  ES64L-G16RevA.03 25-Dec-2016

 ------------------------------------------------
 #p CCSD(T,MaxCyc=300)/cc-pVTZ Guess=Read SCF=XQC
 ------------------------------------------------

 ---------
 O2_O2_156
 ---------
 Symbolic Z-matrix:
 Charge = -2 Multiplicity = 5

                         Standard orientation:
 ---------------------------------------------------------------------
 Center     Atomic      Atomic             Coordinates (Angstroms)
 Number     Number       Type             X           Y           Z
 ---------------------------------------------------------------------
      1          8           0        0.000000    0.000000    1.896945
      2          8           0        0.000000    0.000000    3.249325
      3          8           0        0.000000    0.000000   -3.249325
      4          8           0        0.000000    0.000000   -1.896945
 ---------------------------------------------------------------------

 SCF Done:  E(UHF) =  -298.777191345     A.U. after   16 cycles
 E2 =    -0.1136704626D+01 EUMP2 =    -0.29991389597075D+03
 CCSD(T)
 CCSD(T)= -0.29991573516D+03

 Unable to determine electronic state:  an orbital has unidentified symmetry.
 Alpha  occ. eigenvalues --  -20.24137 -20.24136 -20.19773 -20.19772  -1.10735
 Alpha  occ. eigenvalues --   -1.10724  -0.74497  -0.74395  -0.29446  -0.29413
 Alpha  occ. eigenvalues --   -0.26740  -0.26708  -0.24426  -0.23478  -0.08713
 Alpha  occ. eigenvalues --   -0.08665  -0.06209  -0.06150   0.42360
 Alpha virt. eigenvalues --    0.57737   1.02719   1.11092   1.11312   1.12038
 Alpha virt. eigenvalues --    1.12701   1.13316   1.13483   1.19797   1.20948
 Alpha virt. eigenvalues --    1.21347   1.22619   1.28247   1.34506   1.34575

  Beta  occ. eigenvalues --  -20.18395 -20.18395 -20.14792 -20.14792  -0.94758
  Beta  occ. eigenvalues --   -0.94739  -0.55662  -0.55485  -0.15645  -0.15273
  Beta  occ. eigenvalues --   -0.09843  -0.09363  -0.02616  -0.02578   0.24679
  Beta virt. eigenvalues --    0.35467   0.54177   0.54449   0.76464   0.81870
  Beta virt. eigenvalues --    1.11465   1.17708   1.18563   1.18894   1.19449
  Beta virt. eigenvalues --    1.20982   1.21322   1.27778   1.29312   1.30687

 Mulliken charges and spin densities:
               1          2
     1  O   -0.374807   1.122442
     2  O   -0.625193   0.877558
     3  O   -0.625193   0.877558
     4  O   -0.374807   1.122442
 Sum of Mulliken charges =  -2.00000   4.00000

 Dipole moment (field-independent basis, Debye):
    X=             -0.0000    Y=              0.0000    Z=              0.0000  Tot=              0.0000
 Quadrupole moment (field-independent basis, Debye-Ang):
   XX=            -25.1628   YY=            -24.0028   ZZ=           -104.7078
   XY=             -0.0000   XZ=              0.0000   YZ=             -0.0000

 483\PMP3-0=-299.8837448\MP4SDQ=-299.7791917\CCSD=-299.8108045\CCSD(T)=
 Normal termination of Gaussian 16 at Sat Jan  7 06:33:11 2023.
