 Gaussian 16, Revision A.03,
 Gaussian 16:  ES64L-G16RevA.03 25-Dec-2016

 ------------------------------------------------
 #p CCSD(T,MaxCyc=300)/cc-pVTZ Guess=Read SCF=XQC
 ------------------------------------------------

 -------
 O2_O2_8
 -------
 Symbolic Z-matrix:
 Charge = -2 Multiplicity = 5

                         Standard orientation:
 ---------------------------------------------------------------------
 Center     Atomic      Atomic             Coordinates (Angstroms)
 Number     Number       Type             X           Y           Z
 ---------------------------------------------------------------------
      1          8           0        0.000000    0.000000    0.849210
      2          8           0        0.000000    0.000000    2.201590
      3          8           0        0.000000    0.000000   -2.201590
      4          8           0        0.000000    0.000000   -0.849210
 ---------------------------------------------------------------------

 SCF Done:  E(UHF) =  -298.738719498     A.U. after   14 cycles
 E2 =    -0.9892597568D+00 EUMP2 =    -0.29972797925517D+03
 CCSD(T)
 CCSD(T)= -0.29978190834D+03

 Unable to determine electronic state:  an orbital has unidentified symmetry.
 Alpha  occ. eigenvalues --  -20.12494 -20.12480 -20.10339 -20.10338  -1.04525
 Alpha  occ. eigenvalues --   -1.01804  -0.72586  -0.62261  -0.25260  -0.22271
 Alpha  occ. eigenvalues --   -0.20755  -0.19532  -0.16689  -0.06281  -0.03139
 Alpha  occ. eigenvalues --    0.00240   0.02983   0.04833   0.40183
 Alpha virt. eigenvalues --    0.80964   1.10179   1.12060   1.17263   1.18266
 Alpha virt. eigenvalues --    1.18973   1.21499   1.24568   1.26271   1.38546
 Alpha virt. eigenvalues --    1.39284   1.43262   1.43580   1.53890   1.93152

  Beta  occ. eigenvalues --  -20.06965 -20.06957 -20.04510 -20.04509  -0.87404
  Beta  occ. eigenvalues --   -0.83492  -0.55506  -0.41426  -0.13751  -0.04162
  Beta  occ. eigenvalues --   -0.00826   0.01094   0.05329   0.08274   0.23055
  Beta virt. eigenvalues --    0.58402   0.59711   0.66389   0.87998   0.95617
  Beta virt. eigenvalues --    1.20607   1.23390   1.25522   1.26382   1.26750
  Beta virt. eigenvalues --    1.31779   1.34254   1.37578   1.40856   1.41437

 Mulliken charges and spin densities:
               1          2
     1  O   -0.338789   0.859508
     2  O   -0.661211   1.140492
     3  O   -0.661211   1.140492
     4  O   -0.338789   0.859508
 Sum of Mulliken charges =  -2.00000   4.00000

 Dipole moment (field-independent basis, Debye):
    X=             -0.0000    Y=              0.0000    Z=             -0.0000  Tot=              0.0000
 Quadrupole moment (field-independent basis, Debye-Ang):
   XX=            -25.2166   YY=            -23.8540   ZZ=            -63.9757
   XY=             -0.0000   XZ=              0.0000   YZ=             -0.0000

 081\PMP3-0=-299.7030011\MP4SDQ=-299.7193881\CCSD=-299.7227673\CCSD(T)=
 Normal termination of Gaussian 16 at Sat Jan  7 03:05:06 2023.
