 Gaussian 16, Revision A.03,
 Gaussian 16:  ES64L-G16RevA.03 25-Dec-2016

 ------------------------------------------------
 #p CCSD(T,MaxCyc=300)/cc-pVTZ Guess=Read SCF=XQC
 ------------------------------------------------

 ---------
 O2_O2_271
 ---------
 Symbolic Z-matrix:
 Charge = -2 Multiplicity = 5

                         Standard orientation:
 ---------------------------------------------------------------------
 Center     Atomic      Atomic             Coordinates (Angstroms)
 Number     Number       Type             X           Y           Z
 ---------------------------------------------------------------------
      1          8           0        0.000000    0.000000    2.711063
      2          8           0        0.000000    0.000000    4.063444
      3          8           0        0.000000    0.000000   -4.063444
      4          8           0        0.000000    0.000000   -2.711063
 ---------------------------------------------------------------------

 SCF Done:  E(UHF) =  -298.770643554     A.U. after    9 cycles
 E2 =    -0.1266555781D+01 EUMP2 =    -0.30003719933486D+03
 CCSD(T)
 CCSD(T)= -0.29995073817D+03

 Unable to determine electronic state:  an orbital has unidentified symmetry.
 Alpha  occ. eigenvalues --  -20.25110 -20.25110 -20.22211 -20.22210  -1.12795
 Alpha  occ. eigenvalues --   -1.12794  -0.76775  -0.76766  -0.31308  -0.31307
 Alpha  occ. eigenvalues --   -0.28648  -0.28647  -0.26941  -0.26709  -0.10831
 Alpha  occ. eigenvalues --   -0.10830  -0.08286  -0.08285   0.42565
 Alpha virt. eigenvalues --    0.50907   1.05887   1.06220   1.09501   1.09511
 Alpha virt. eigenvalues --    1.10858   1.10866   1.13970   1.14397   1.18178
 Alpha virt. eigenvalues --    1.18204   1.19371   1.19399   1.32419   1.32422

  Beta  occ. eigenvalues --  -20.19268 -20.19268 -20.17047 -20.17047  -0.96422
  Beta  occ. eigenvalues --   -0.96420  -0.57568  -0.57540  -0.17428  -0.17419
  Beta  occ. eigenvalues --   -0.11666  -0.11483  -0.04486  -0.04485   0.24138
  Beta virt. eigenvalues --    0.31987   0.52107   0.52110   0.76714   0.76892
  Beta virt. eigenvalues --    1.14616   1.14828   1.17062   1.17068   1.17691
  Beta virt. eigenvalues --    1.17853   1.19138   1.19141   1.26204   1.26214

 Mulliken charges and spin densities:
               1          2
     1  O   -0.407127   1.094523
     2  O   -0.592873   0.905477
     3  O   -0.592873   0.905477
     4  O   -0.407127   1.094523
 Sum of Mulliken charges =  -2.00000   4.00000

 Dipole moment (field-independent basis, Debye):
    X=             -0.0000    Y=             -0.0000    Z=             -0.0000  Tot=              0.0000
 Quadrupole moment (field-independent basis, Debye-Ang):
   XX=            -25.1304   YY=            -23.9658   ZZ=           -152.0515
   XY=             -0.0000   XZ=              0.0000   YZ=             -0.0000

 Normal termination of Gaussian 16 at Sat Jan  7 09:31:47 2023.
