 Gaussian 16, Revision A.03,
 Gaussian 16:  ES64L-G16RevA.03 25-Dec-2016

 ------------------------------------------------
 #p CCSD(T,MaxCyc=300)/cc-pVTZ Guess=Read SCF=XQC
 ------------------------------------------------

 ---------
 O2_O2_129
 ---------
 Symbolic Z-matrix:
 Charge = -2 Multiplicity = 5

                         Standard orientation:
 ---------------------------------------------------------------------
 Center     Atomic      Atomic             Coordinates (Angstroms)
 Number     Number       Type             X           Y           Z
 ---------------------------------------------------------------------
      1          8           0        0.000000    0.000000    1.705804
      2          8           0        0.000000    0.000000    3.058184
      3          8           0        0.000000    0.000000   -3.058184
      4          8           0        0.000000    0.000000   -1.705804
 ---------------------------------------------------------------------

 SCF Done:  E(UHF) =  -298.782389276     A.U. after   16 cycles
 E2 =    -0.1106555977D+01 EUMP2 =    -0.29988894525298D+03
 CCSD(T)
 CCSD(T)= -0.29990511097D+03

 Unable to determine electronic state:  an orbital has unidentified symmetry.
 Alpha  occ. eigenvalues --  -20.23786 -20.23786 -20.18852 -20.18852  -1.09992
 Alpha  occ. eigenvalues --   -1.09964  -0.73701  -0.73486  -0.28740  -0.28662
 Alpha  occ. eigenvalues --   -0.26076  -0.25999  -0.23644  -0.22133  -0.07998
 Alpha  occ. eigenvalues --   -0.07886  -0.05460  -0.05327   0.41904
 Alpha virt. eigenvalues --    0.60574   1.02528   1.11423   1.11597   1.13010
 Alpha virt. eigenvalues --    1.13142   1.13396   1.14373   1.19816   1.20943
 Alpha virt. eigenvalues --    1.23304   1.24635   1.35139   1.35373   1.39943

  Beta  occ. eigenvalues --  -20.18079 -20.18078 -20.13897 -20.13897  -0.94120
  Beta  occ. eigenvalues --   -0.94077  -0.54962  -0.54617  -0.15059  -0.14311
  Beta  occ. eigenvalues --   -0.09163  -0.08512  -0.01831  -0.01744   0.24820
  Beta virt. eigenvalues --    0.36936   0.54791   0.55390   0.77021   0.83551
  Beta virt. eigenvalues --    1.11001   1.18078   1.19051   1.19311   1.20430
  Beta virt. eigenvalues --    1.21479   1.22255   1.27788   1.30639   1.31319

 Mulliken charges and spin densities:
               1          2
     1  O   -0.365821   1.126612
     2  O   -0.634179   0.873388
     3  O   -0.634179   0.873388
     4  O   -0.365821   1.126612
 Sum of Mulliken charges =  -2.00000   4.00000

 Dipole moment (field-independent basis, Debye):
    X=             -0.0000    Y=              0.0000    Z=             -0.0000  Tot=              0.0000
 Quadrupole moment (field-independent basis, Debye-Ang):
   XX=            -25.1797   YY=            -24.0184   ZZ=            -94.9722
   XY=             -0.0000   XZ=              0.0000   YZ=             -0.0000

 Normal termination of Gaussian 16 at Sat Jan  7 05:53:18 2023.
