 Gaussian 16, Revision A.03,
 Gaussian 16:  ES64L-G16RevA.03 25-Dec-2016

 ------------------------------------------------
 #p CCSD(T,MaxCyc=300)/cc-pVTZ Guess=Read SCF=XQC
 ------------------------------------------------

 ---------
 O2_O2_173
 ---------
 Symbolic Z-matrix:
 Charge = -2 Multiplicity = 5

                         Standard orientation:
 ---------------------------------------------------------------------
 Center     Atomic      Atomic             Coordinates (Angstroms)
 Number     Number       Type             X           Y           Z
 ---------------------------------------------------------------------
      1          8           0        0.000000    0.000000    2.017293
      2          8           0        0.000000    0.000000    3.369673
      3          8           0        0.000000    0.000000   -3.369673
      4          8           0        0.000000    0.000000   -2.017293
 ---------------------------------------------------------------------

 SCF Done:  E(UHF) =  -298.773506809     A.U. after   16 cycles
 E2 =    -0.1159372910D+01 EUMP2 =    -0.29993287971930D+03
 CCSD(T)
 CCSD(T)= -0.29992200772D+03

 Unable to determine electronic state:  an orbital has unidentified symmetry.
 Alpha  occ. eigenvalues --  -20.24185 -20.24185 -20.20193 -20.20193  -1.11079
 Alpha  occ. eigenvalues --   -1.11073  -0.74896  -0.74831  -0.29737  -0.29718
 Alpha  occ. eigenvalues --   -0.27036  -0.27019  -0.24894  -0.24176  -0.09059
 Alpha  occ. eigenvalues --   -0.09031  -0.06549  -0.06516   0.42615
 Alpha virt. eigenvalues --    0.56095   1.03828   1.10591   1.11099   1.11512
 Alpha virt. eigenvalues --    1.12471   1.12818   1.13733   1.19684   1.20555
 Alpha virt. eigenvalues --    1.20855   1.21796   1.23125   1.34155   1.34191

  Beta  occ. eigenvalues --  -20.18401 -20.18401 -20.15175 -20.15175  -0.94982
  Beta  occ. eigenvalues --   -0.94971  -0.55956  -0.55835  -0.15889  -0.15654
  Beta  occ. eigenvalues --   -0.10121  -0.09719  -0.02916  -0.02895   0.24651
  Beta virt. eigenvalues --    0.34820   0.53858   0.54013   0.76656   0.80851
  Beta virt. eigenvalues --    1.12637   1.17428   1.18399   1.18658   1.18979
  Beta virt. eigenvalues --    1.20721   1.20913   1.26731   1.27677   1.28522

 Mulliken charges and spin densities:
               1          2
     1  O   -0.380362   1.116554
     2  O   -0.619638   0.883446
     3  O   -0.619638   0.883446
     4  O   -0.380362   1.116554
 Sum of Mulliken charges =  -2.00000   4.00000

 Dipole moment (field-independent basis, Debye):
    X=             -0.0000    Y=              0.0000    Z=              0.0000  Tot=              0.0000
 Quadrupole moment (field-independent basis, Debye-Ang):
   XX=            -25.1542   YY=            -23.9932   ZZ=           -111.1782
   XY=             -0.0000   XZ=              0.0000   YZ=             -0.0000

 Normal termination of Gaussian 16 at Sat Jan  7 06:58:36 2023.
