 Gaussian 16, Revision A.03,
 Gaussian 16:  ES64L-G16RevA.03 25-Dec-2016

 ------------------------------------------------
 #p CCSD(T,MaxCyc=300)/cc-pVTZ Guess=Read SCF=XQC
 ------------------------------------------------

 ---------
 O2_O2_262
 ---------
 Symbolic Z-matrix:
 Charge = -2 Multiplicity = 5

                         Standard orientation:
 ---------------------------------------------------------------------
 Center     Atomic      Atomic             Coordinates (Angstroms)
 Number     Number       Type             X           Y           Z
 ---------------------------------------------------------------------
      1          8           0        0.000000    0.000000    2.647350
      2          8           0        0.000000    0.000000    3.999730
      3          8           0        0.000000    0.000000   -3.999730
      4          8           0        0.000000    0.000000   -2.647350
 ---------------------------------------------------------------------

 SCF Done:  E(UHF) =  -298.770102937     A.U. after    9 cycles
 E2 =    -0.1258699705D+01 EUMP2 =    -0.30002880264277D+03
 CCSD(T)
 CCSD(T)= -0.29994864961D+03

 Unable to determine electronic state:  an orbital has unidentified symmetry.
 Alpha  occ. eigenvalues --  -20.24994 -20.24993 -20.22035 -20.22035  -1.12648
 Alpha  occ. eigenvalues --   -1.12647  -0.76621  -0.76610  -0.31166  -0.31165
 Alpha  occ. eigenvalues --   -0.28503  -0.28502  -0.26789  -0.26540  -0.10676
 Alpha  occ. eigenvalues --   -0.10675  -0.08134  -0.08133   0.42625
 Alpha virt. eigenvalues --    0.51187   1.05988   1.06468   1.09647   1.09660
 Alpha virt. eigenvalues --    1.11004   1.11014   1.14091   1.14624   1.18327
 Alpha virt. eigenvalues --    1.18360   1.19519   1.19555   1.32564   1.32568

  Beta  occ. eigenvalues --  -20.19147 -20.19146 -20.16880 -20.16880  -0.96278
  Beta  occ. eigenvalues --   -0.96276  -0.57420  -0.57389  -0.17278  -0.17266
  Beta  occ. eigenvalues --   -0.11523  -0.11329  -0.04345  -0.04345   0.24205
  Beta virt. eigenvalues --    0.32215   0.52261   0.52265   0.76838   0.77099
  Beta virt. eigenvalues --    1.14725   1.15034   1.17208   1.17217   1.17823
  Beta virt. eigenvalues --    1.18076   1.19281   1.19284   1.26351   1.26367

 Mulliken charges and spin densities:
               1          2
     1  O   -0.404979   1.096197
     2  O   -0.595021   0.903803
     3  O   -0.595021   0.903803
     4  O   -0.404979   1.096197
 Sum of Mulliken charges =  -2.00000   4.00000

 Dipole moment (field-independent basis, Debye):
    X=             -0.0000    Y=              0.0000    Z=              0.0000  Tot=              0.0000
 Quadrupole moment (field-independent basis, Debye-Ang):
   XX=            -25.1313   YY=            -23.9665   ZZ=           -147.9806
   XY=             -0.0000   XZ=              0.0000   YZ=             -0.0000

 Normal termination of Gaussian 16 at Sat Jan  7 09:17:12 2023.
