 Gaussian 16, Revision A.03,
 Gaussian 16:  ES64L-G16RevA.03 25-Dec-2016

 ------------------------------------------------
 #p CCSD(T,MaxCyc=300)/cc-pVTZ Guess=Read SCF=XQC
 ------------------------------------------------

 ---------
 O2_O2_170
 ---------
 Symbolic Z-matrix:
 Charge = -2 Multiplicity = 5

                         Standard orientation:
 ---------------------------------------------------------------------
 Center     Atomic      Atomic             Coordinates (Angstroms)
 Number     Number       Type             X           Y           Z
 ---------------------------------------------------------------------
      1          8           0        0.000000    0.000000    1.996055
      2          8           0        0.000000    0.000000    3.348435
      3          8           0        0.000000    0.000000   -3.348435
      4          8           0        0.000000    0.000000   -1.996055
 ---------------------------------------------------------------------

 SCF Done:  E(UHF) =  -298.774106137     A.U. after   16 cycles
 E2 =    -0.1155323455D+01 EUMP2 =    -0.29992942959225D+03
 CCSD(T)
 CCSD(T)= -0.29992092235D+03

 Unable to determine electronic state:  an orbital has unidentified symmetry.
 Alpha  occ. eigenvalues --  -20.24178 -20.24177 -20.20124 -20.20124  -1.11022
 Alpha  occ. eigenvalues --   -1.11015  -0.74830  -0.74759  -0.29689  -0.29669
 Alpha  occ. eigenvalues --   -0.26987  -0.26967  -0.24814  -0.24061  -0.09001
 Alpha  occ. eigenvalues --   -0.08971  -0.06493  -0.06456   0.42577
 Alpha virt. eigenvalues --    0.56368   1.03619   1.10698   1.11139   1.11597
 Alpha virt. eigenvalues --    1.12513   1.12899   1.13681   1.19710   1.20677
 Alpha virt. eigenvalues --    1.20877   1.21923   1.23907   1.34213   1.34255

  Beta  occ. eigenvalues --  -20.18401 -20.18401 -20.15114 -20.15113  -0.94946
  Beta  occ. eigenvalues --   -0.94934  -0.55908  -0.55779  -0.15848  -0.15593
  Beta  occ. eigenvalues --   -0.10076  -0.09661  -0.02868  -0.02844   0.24656
  Beta virt. eigenvalues --    0.34926   0.53912   0.54084   0.76608   0.81029
  Beta virt. eigenvalues --    1.12418   1.17482   1.18421   1.18700   1.19056
  Beta virt. eigenvalues --    1.20767   1.20979   1.27477   1.27701   1.28643

 Mulliken charges and spin densities:
               1          2
     1  O   -0.379416   1.117558
     2  O   -0.620584   0.882442
     3  O   -0.620584   0.882442
     4  O   -0.379416   1.117558
 Sum of Mulliken charges =  -2.00000   4.00000

 Dipole moment (field-independent basis, Debye):
    X=             -0.0000    Y=              0.0000    Z=              0.0000  Tot=              0.0000
 Quadrupole moment (field-independent basis, Debye-Ang):
   XX=            -25.1556   YY=            -23.9949   ZZ=           -110.0232
   XY=             -0.0000   XZ=              0.0000   YZ=             -0.0000

 Normal termination of Gaussian 16 at Sat Jan  7 06:53:53 2023.
