 Gaussian 16, Revision A.03,
 Gaussian 16:  ES64L-G16RevA.03 25-Dec-2016

 ------------------------------------------------
 #p CCSD(T,MaxCyc=300)/cc-pVTZ Guess=Read SCF=XQC
 ------------------------------------------------

 --------
 O2_O2_20
 --------
 Symbolic Z-matrix:
 Charge = -2 Multiplicity = 5

                         Standard orientation:
 ---------------------------------------------------------------------
 Center     Atomic      Atomic             Coordinates (Angstroms)
 Number     Number       Type             X           Y           Z
 ---------------------------------------------------------------------
      1          8           0        0.000000    0.000000    0.934161
      2          8           0        0.000000    0.000000    2.286542
      3          8           0        0.000000    0.000000   -2.286542
      4          8           0        0.000000    0.000000   -0.934161
 ---------------------------------------------------------------------

 SCF Done:  E(UHF) =  -298.761533870     A.U. after   13 cycles
 E2 =    -0.1005884722D+01 EUMP2 =    -0.29976741859134D+03
 CCSD(T)
 CCSD(T)= -0.29981770379D+03

 Unable to determine electronic state:  an orbital has unidentified symmetry.
 Alpha  occ. eigenvalues --  -20.14183 -20.14175 -20.11883 -20.11883  -1.04770
 Alpha  occ. eigenvalues --   -1.03134  -0.71328  -0.64507  -0.24105  -0.22724
 Alpha  occ. eigenvalues --   -0.20925  -0.20866  -0.18274  -0.09780  -0.03340
 Alpha  occ. eigenvalues --   -0.00227   0.00787   0.02975   0.41152
 Alpha virt. eigenvalues --    0.75947   1.09966   1.12386   1.16193   1.16988
 Alpha virt. eigenvalues --    1.18271   1.20616   1.22665   1.24592   1.38634
 Alpha virt. eigenvalues --    1.39341   1.41410   1.41842   1.49501   1.92178

  Beta  occ. eigenvalues --  -20.08519 -20.08514 -20.06183 -20.06183  -0.87496
  Beta  occ. eigenvalues --   -0.85197  -0.53572  -0.43897  -0.13311  -0.04562
  Beta  occ. eigenvalues --   -0.02019   0.00663   0.01999   0.06632   0.24242
  Beta virt. eigenvalues --    0.54967   0.59059   0.64539   0.87039   0.93712
  Beta virt. eigenvalues --    1.20728   1.21721   1.24679   1.25543   1.25634
  Beta virt. eigenvalues --    1.30483   1.32237   1.35845   1.40685   1.41450

 Mulliken charges and spin densities:
               1          2
     1  O   -0.350937   0.898582
     2  O   -0.649063   1.101418
     3  O   -0.649063   1.101418
     4  O   -0.350937   0.898582
 Sum of Mulliken charges =  -2.00000   4.00000

 Dipole moment (field-independent basis, Debye):
    X=             -0.0000    Y=              0.0000    Z=              0.0000  Tot=              0.0000
 Quadrupole moment (field-independent basis, Debye-Ang):
   XX=            -25.2774   YY=            -23.9423   ZZ=            -65.8158
   XY=             -0.0000   XZ=              0.0000   YZ=             -0.0000

 Normal termination of Gaussian 16 at Sat Jan  7 03:21:03 2023.
