 Gaussian 16, Revision A.03,
 Gaussian 16:  ES64L-G16RevA.03 25-Dec-2016

 ------------------------------------------------
 #p CCSD(T,MaxCyc=300)/cc-pVTZ Guess=Read SCF=XQC
 ------------------------------------------------

 ---------
 O2_O2_259
 ---------
 Symbolic Z-matrix:
 Charge = -2 Multiplicity = 5

                         Standard orientation:
 ---------------------------------------------------------------------
 Center     Atomic      Atomic             Coordinates (Angstroms)
 Number     Number       Type             X           Y           Z
 ---------------------------------------------------------------------
      1          8           0        0.000000    0.000000    2.626112
      2          8           0        0.000000    0.000000    3.978492
      3          8           0        0.000000    0.000000   -3.978492
      4          8           0        0.000000    0.000000   -2.626112
 ---------------------------------------------------------------------

 SCF Done:  E(UHF) =  -298.769934393     A.U. after    9 cycles
 E2 =    -0.1256026573D+01 EUMP2 =    -0.30002596096641D+03
 CCSD(T)
 CCSD(T)= -0.29994793180D+03

 Unable to determine electronic state:  an orbital has unidentified symmetry.
 Alpha  occ. eigenvalues --  -20.24955 -20.24954 -20.21975 -20.21975  -1.12598
 Alpha  occ. eigenvalues --   -1.12598  -0.76568  -0.76558  -0.31118  -0.31117
 Alpha  occ. eigenvalues --   -0.28454  -0.28453  -0.26737  -0.26481  -0.10623
 Alpha  occ. eigenvalues --   -0.10622  -0.08083  -0.08081   0.42645
 Alpha virt. eigenvalues --    0.51286   1.06016   1.06558   1.09696   1.09711
 Alpha virt. eigenvalues --    1.11053   1.11065   1.14129   1.14707   1.18377
 Alpha virt. eigenvalues --    1.18413   1.19570   1.19609   1.32613   1.32617

  Beta  occ. eigenvalues --  -20.19106 -20.19106 -20.16824 -20.16824  -0.96230
  Beta  occ. eigenvalues --   -0.96228  -0.57370  -0.57338  -0.17228  -0.17214
  Beta  occ. eigenvalues --   -0.11474  -0.11276  -0.04298  -0.04297   0.24227
  Beta virt. eigenvalues --    0.32292   0.52313   0.52318   0.76877   0.77173
  Beta virt. eigenvalues --    1.14758   1.15107   1.17258   1.17267   1.17865
  Beta virt. eigenvalues --    1.18157   1.19329   1.19333   1.26401   1.26420

 Mulliken charges and spin densities:
               1          2
     1  O   -0.404247   1.096763
     2  O   -0.595753   0.903237
     3  O   -0.595753   0.903237
     4  O   -0.404247   1.096763
 Sum of Mulliken charges =  -2.00000   4.00000

 Dipole moment (field-independent basis, Debye):
    X=             -0.0000    Y=              0.0000    Z=             -0.0000  Tot=              0.0000
 Quadrupole moment (field-independent basis, Debye-Ang):
   XX=            -25.1316   YY=            -23.9668   ZZ=           -146.6402
   XY=             -0.0000   XZ=              0.0000   YZ=             -0.0000

 Normal termination of Gaussian 16 at Sat Jan  7 09:12:11 2023.
