 Gaussian 16, Revision A.03,
 Gaussian 16:  ES64L-G16RevA.03 25-Dec-2016

 ------------------------------------------------
 #p CCSD(T,MaxCyc=300)/cc-pVTZ Guess=Read SCF=XQC
 ------------------------------------------------

 --------
 O2_O2_98
 --------
 Symbolic Z-matrix:
 Charge = -2 Multiplicity = 5

                         Standard orientation:
 ---------------------------------------------------------------------
 Center     Atomic      Atomic             Coordinates (Angstroms)
 Number     Number       Type             X           Y           Z
 ---------------------------------------------------------------------
      1          8           0        0.000000    0.000000    1.486346
      2          8           0        0.000000    0.000000    2.838726
      3          8           0        0.000000    0.000000   -2.838726
      4          8           0        0.000000    0.000000   -1.486346
 ---------------------------------------------------------------------

 SCF Done:  E(UHF) =  -298.782721282     A.U. after   16 cycles
 E2 =    -0.1084317159D+01 EUMP2 =    -0.29986703844083D+03
 CCSD(T)
 CCSD(T)= -0.29989122686D+03

 Unable to determine electronic state:  an orbital has unidentified symmetry.
 Alpha  occ. eigenvalues --  -20.22102 -20.22100 -20.17514 -20.17514  -1.08643
 Alpha  occ. eigenvalues --   -1.08560  -0.72505  -0.71974  -0.27162  -0.26968
 Alpha  occ. eigenvalues --   -0.24770  -0.24561  -0.22866  -0.20187  -0.06890
 Alpha  occ. eigenvalues --   -0.06578  -0.04112  -0.03787   0.41765
 Alpha virt. eigenvalues --    0.63481   1.07873   1.11084   1.12024   1.13265
 Alpha virt. eigenvalues --    1.13513   1.14649   1.16019   1.19602   1.20940
 Alpha virt. eigenvalues --    1.27253   1.28490   1.36287   1.36708   1.57678

  Beta  occ. eigenvalues --  -20.16370 -20.16369 -20.12409 -20.12409  -0.92546
  Beta  occ. eigenvalues --   -0.92420  -0.53617  -0.52784  -0.13915  -0.12199
  Beta  occ. eigenvalues --   -0.07900  -0.06998  -0.00115   0.00158   0.25230
  Beta virt. eigenvalues --    0.40082   0.55720   0.56958   0.79412   0.85812
  Beta virt. eigenvalues --    1.14969   1.18392   1.20090   1.20095   1.21756
  Beta virt. eigenvalues --    1.22125   1.24116   1.27659   1.30720   1.35464

 Mulliken charges and spin densities:
               1          2
     1  O   -0.369614   1.086863
     2  O   -0.630386   0.913137
     3  O   -0.630386   0.913137
     4  O   -0.369614   1.086863
 Sum of Mulliken charges =  -2.00000   4.00000

 Dipole moment (field-independent basis, Debye):
    X=             -0.0000    Y=              0.0000    Z=             -0.0000  Tot=              0.0000
 Quadrupole moment (field-independent basis, Debye-Ang):
   XX=            -25.2092   YY=            -24.0367   ZZ=            -84.5873
   XY=             -0.0000   XZ=              0.0000   YZ=             -0.0000

 Normal termination of Gaussian 16 at Sat Jan  7 05:08:20 2023.
