 Gaussian 16, Revision A.03,
 Gaussian 16:  ES64L-G16RevA.03 25-Dec-2016

 ------------------------------------------------
 #p CCSD(T,MaxCyc=300)/cc-pVTZ Guess=Read SCF=XQC
 ------------------------------------------------

 ---------
 O2_O2_158
 ---------
 Symbolic Z-matrix:
 Charge = -2 Multiplicity = 5

                         Standard orientation:
 ---------------------------------------------------------------------
 Center     Atomic      Atomic             Coordinates (Angstroms)
 Number     Number       Type             X           Y           Z
 ---------------------------------------------------------------------
      1          8           0        0.000000    0.000000    1.911104
      2          8           0        0.000000    0.000000    3.263484
      3          8           0        0.000000    0.000000   -3.263484
      4          8           0        0.000000    0.000000   -1.911104
 ---------------------------------------------------------------------

 SCF Done:  E(UHF) =  -298.776734068     A.U. after   16 cycles
 E2 =    -0.1139304315D+01 EUMP2 =    -0.29991603838311D+03
 CCSD(T)
 CCSD(T)= -0.29991648829D+03

 Unable to determine electronic state:  an orbital has unidentified symmetry.
 Alpha  occ. eigenvalues --  -20.24145 -20.24144 -20.19827 -20.19827  -1.10778
 Alpha  occ. eigenvalues --   -1.10768  -0.74547  -0.74450  -0.29483  -0.29453
 Alpha  occ. eigenvalues --   -0.26778  -0.26748  -0.24482  -0.23566  -0.08757
 Alpha  occ. eigenvalues --   -0.08712  -0.06252  -0.06197   0.42394
 Alpha virt. eigenvalues --    0.57533   1.02832   1.11046   1.11289   1.11970
 Alpha virt. eigenvalues --    1.12675   1.13251   1.13506   1.19788   1.20942
 Alpha virt. eigenvalues --    1.21240   1.22508   1.27557   1.34461   1.34527

  Beta  occ. eigenvalues --  -20.18398 -20.18398 -20.14843 -20.14842  -0.94788
  Beta  occ. eigenvalues --   -0.94770  -0.55700  -0.55531  -0.15676  -0.15324
  Beta  occ. eigenvalues --   -0.09879  -0.09409  -0.02655  -0.02620   0.24675
  Beta virt. eigenvalues --    0.35384   0.54137   0.54393   0.76473   0.81749
  Beta virt. eigenvalues --    1.11586   1.17677   1.18538   1.18866   1.19388
  Beta virt. eigenvalues --    1.20951   1.21269   1.27771   1.29204   1.30684

 Mulliken charges and spin densities:
               1          2
     1  O   -0.375485   1.121749
     2  O   -0.624515   0.878251
     3  O   -0.624515   0.878251
     4  O   -0.375485   1.121749
 Sum of Mulliken charges =  -2.00000   4.00000

 Dipole moment (field-independent basis, Debye):
    X=             -0.0000    Y=              0.0000    Z=              0.0000  Tot=              0.0000
 Quadrupole moment (field-independent basis, Debye-Ang):
   XX=            -25.1618   YY=            -24.0017   ZZ=           -105.4585
   XY=             -0.0000   XZ=              0.0000   YZ=             -0.0000

 Normal termination of Gaussian 16 at Sat Jan  7 06:36:10 2023.
