 Gaussian 16, Revision A.03,
 Gaussian 16:  ES64L-G16RevA.03 25-Dec-2016

 ------------------------------------------------
 #p CCSD(T,MaxCyc=300)/cc-pVTZ Guess=Read SCF=XQC
 ------------------------------------------------

 ---------
 O2_O2_286
 ---------
 Symbolic Z-matrix:
 Charge = -2 Multiplicity = 5

                         Standard orientation:
 ---------------------------------------------------------------------
 Center     Atomic      Atomic             Coordinates (Angstroms)
 Number     Number       Type             X           Y           Z
 ---------------------------------------------------------------------
      1          8           0        0.000000    0.000000    2.817252
      2          8           0        0.000000    0.000000    4.169633
      3          8           0        0.000000    0.000000   -4.169633
      4          8           0        0.000000    0.000000   -2.817252
 ---------------------------------------------------------------------

 SCF Done:  E(UHF) =  -298.771618103     A.U. after    9 cycles
 E2 =    -0.1279214943D+01 EUMP2 =    -0.30005083304609D+03
 CCSD(T)
 CCSD(T)= -0.29995402791D+03

 Unable to determine electronic state:  an orbital has unidentified symmetry.
 Alpha  occ. eigenvalues --  -20.25302 -20.25302 -20.22494 -20.22494  -1.13031
 Alpha  occ. eigenvalues --   -1.13030  -0.77021  -0.77014  -0.31537  -0.31536
 Alpha  occ. eigenvalues --   -0.28882  -0.28881  -0.27182  -0.26975  -0.11080
 Alpha  occ. eigenvalues --   -0.11080  -0.08530  -0.08529   0.42462
 Alpha virt. eigenvalues --    0.50479   1.05689   1.05867   1.09267   1.09273
 Alpha virt. eigenvalues --    1.10624   1.10629   1.13753   1.14067   1.17939
 Alpha virt. eigenvalues --    1.17957   1.19131   1.19151   1.32187   1.32189

  Beta  occ. eigenvalues --  -20.19470 -20.19470 -20.17317 -20.17317  -0.96657
  Beta  occ. eigenvalues --   -0.96655  -0.57808  -0.57783  -0.17670  -0.17665
  Beta  occ. eigenvalues --   -0.11898  -0.11732  -0.04712  -0.04712   0.24027
  Beta virt. eigenvalues --    0.31624   0.51859   0.51861   0.76495   0.76584
  Beta virt. eigenvalues --    1.14410   1.14520   1.16826   1.16829   1.17458
  Beta virt. eigenvalues --    1.17534   1.18909   1.18910   1.25966   1.25970

 Mulliken charges and spin densities:
               1          2
     1  O   -0.410533   1.091823
     2  O   -0.589467   0.908177
     3  O   -0.589467   0.908177
     4  O   -0.410533   1.091823
 Sum of Mulliken charges =  -2.00000   4.00000

 Dipole moment (field-independent basis, Debye):
    X=             -0.0000    Y=              0.0000    Z=              0.0000  Tot=              0.0000
 Quadrupole moment (field-independent basis, Debye-Ang):
   XX=            -25.1291   YY=            -23.9648   ZZ=           -159.0045
   XY=             -0.0000   XZ=              0.0000   YZ=             -0.0000

 Normal termination of Gaussian 16 at Sat Jan  7 09:54:54 2023.
