 Gaussian 16, Revision A.03,
 Gaussian 16:  ES64L-G16RevA.03 25-Dec-2016

 ------------------------------------------------
 #p CCSD(T,MaxCyc=300)/cc-pVTZ Guess=Read SCF=XQC
 ------------------------------------------------

 --------
 O2_O2_39
 --------
 Symbolic Z-matrix:
 Charge = -2 Multiplicity = 5

                         Standard orientation:
 ---------------------------------------------------------------------
 Center     Atomic      Atomic             Coordinates (Angstroms)
 Number     Number       Type             X           Y           Z
 ---------------------------------------------------------------------
      1          8           0        0.000000    0.000000    1.068668
      2          8           0        0.000000    0.000000    2.421048
      3          8           0        0.000000    0.000000   -2.421048
      4          8           0        0.000000    0.000000   -1.068668
 ---------------------------------------------------------------------

 SCF Done:  E(UHF) =  -298.775549152     A.U. after   14 cycles
 E2 =    -0.1029684671D+01 EUMP2 =    -0.29980523382363D+03
 CCSD(T)
 CCSD(T)= -0.29984943502D+03

 Unable to determine electronic state:  an orbital has unidentified symmetry.
 Alpha  occ. eigenvalues --  -20.16533 -20.16528 -20.13733 -20.13733  -1.05589
 Alpha  occ. eigenvalues --   -1.04823  -0.70739  -0.67182  -0.23693  -0.22998
 Alpha  occ. eigenvalues --   -0.22644  -0.21683  -0.20285  -0.13790  -0.04033
 Alpha  occ. eigenvalues --   -0.01824  -0.01084   0.00729   0.41827
 Alpha virt. eigenvalues --    0.70808   1.10112   1.12840   1.14366   1.15045
 Alpha virt. eigenvalues --    1.17316   1.19405   1.20774   1.22804   1.37364
 Alpha virt. eigenvalues --    1.38144   1.38333   1.38763   1.40481   1.86630

  Beta  occ. eigenvalues --  -20.10761 -20.10758 -20.08210 -20.08210  -0.88485
  Beta  occ. eigenvalues --   -0.87413  -0.52225  -0.46949  -0.12812  -0.05353
  Beta  occ. eigenvalues --   -0.04325  -0.03534   0.02238   0.04590   0.25284
  Beta virt. eigenvalues --    0.50308   0.58178   0.62095   0.85268   0.91328
  Beta virt. eigenvalues --    1.20184   1.20522   1.23178   1.23921   1.24451
  Beta virt. eigenvalues --    1.28729   1.29651   1.33664   1.40042   1.40194

 Mulliken charges and spin densities:
               1          2
     1  O   -0.363010   0.952890
     2  O   -0.636990   1.047110
     3  O   -0.636990   1.047110
     4  O   -0.363010   0.952890
 Sum of Mulliken charges =  -2.00000   4.00000

 Dipole moment (field-independent basis, Debye):
    X=             -0.0000    Y=              0.0000    Z=             -0.0000  Tot=              0.0000
 Quadrupole moment (field-independent basis, Debye-Ang):
   XX=            -25.2994   YY=            -24.0088   ZZ=            -69.4523
   XY=             -0.0000   XZ=              0.0000   YZ=             -0.0000

 Normal termination of Gaussian 16 at Sat Jan  7 03:47:02 2023.
