 Gaussian 16, Revision A.03,
 Gaussian 16:  ES64L-G16RevA.03 25-Dec-2016

 ------------------------------------------------
 #p CCSD(T,MaxCyc=300)/cc-pVTZ Guess=Read SCF=XQC
 ------------------------------------------------

 --------
 O2_O2_44
 --------
 Symbolic Z-matrix:
 Charge = -2 Multiplicity = 5

                         Standard orientation:
 ---------------------------------------------------------------------
 Center     Atomic      Atomic             Coordinates (Angstroms)
 Number     Number       Type             X           Y           Z
 ---------------------------------------------------------------------
      1          8           0        0.000000    0.000000    1.104065
      2          8           0        0.000000    0.000000    2.456445
      3          8           0        0.000000    0.000000   -2.456445
      4          8           0        0.000000    0.000000   -1.104065
 ---------------------------------------------------------------------

 SCF Done:  E(UHF) =  -298.777035453     A.U. after   15 cycles
 E2 =    -0.1035397688D+01 EUMP2 =    -0.29981243314151D+03
 CCSD(T)
 CCSD(T)= -0.29985499749D+03

 Unable to determine electronic state:  an orbital has unidentified symmetry.
 Alpha  occ. eigenvalues --  -20.17073 -20.17068 -20.14142 -20.14141  -1.05832
 Alpha  occ. eigenvalues --   -1.05202  -0.70748  -0.67745  -0.23965  -0.23059
 Alpha  occ. eigenvalues --   -0.22826  -0.21918  -0.20733  -0.14607  -0.04253
 Alpha  occ. eigenvalues --   -0.02377  -0.01324   0.00241   0.41902
 Alpha virt. eigenvalues --    0.69834   1.10169   1.12967   1.13961   1.14653
 Alpha virt. eigenvalues --    1.17082   1.19109   1.20465   1.22473   1.34842
 Alpha virt. eigenvalues --    1.37237   1.37905   1.38206   1.39598   1.84864

  Beta  occ. eigenvalues --  -20.11292 -20.11289 -20.08657 -20.08657  -0.88804
  Beta  occ. eigenvalues --   -0.87919  -0.52108  -0.47612  -0.12748  -0.05566
  Beta  occ. eigenvalues --   -0.05315  -0.03880   0.02165   0.04138   0.25437
  Beta virt. eigenvalues --    0.49228   0.57966   0.61538   0.84799   0.90783
  Beta virt. eigenvalues --    1.19901   1.20435   1.22796   1.23571   1.24195
  Beta virt. eigenvalues --    1.28311   1.29177   1.33213   1.38213   1.40035

 Mulliken charges and spin densities:
               1          2
     1  O   -0.365736   0.965242
     2  O   -0.634264   1.034758
     3  O   -0.634264   1.034758
     4  O   -0.365736   0.965242
 Sum of Mulliken charges =  -2.00000   4.00000

 Dipole moment (field-independent basis, Debye):
    X=             -0.0000    Y=              0.0000    Z=              0.0000  Tot=              0.0000
 Quadrupole moment (field-independent basis, Debye-Ang):
   XX=            -25.2956   YY=            -24.0168   ZZ=            -70.5059
   XY=             -0.0000   XZ=              0.0000   YZ=             -0.0000

 Normal termination of Gaussian 16 at Sat Jan  7 03:53:58 2023.
