 Gaussian 16, Revision A.03,
 Gaussian 16:  ES64L-G16RevA.03 25-Dec-2016

 ------------------------------------------------
 #p CCSD(T,MaxCyc=300)/cc-pVTZ Guess=Read SCF=XQC
 ------------------------------------------------

 ---------
 O2_O2_182
 ---------
 Symbolic Z-matrix:
 Charge = -2 Multiplicity = 5

                         Standard orientation:
 ---------------------------------------------------------------------
 Center     Atomic      Atomic             Coordinates (Angstroms)
 Number     Number       Type             X           Y           Z
 ---------------------------------------------------------------------
      1          8           0        0.000000    0.000000    2.081007
      2          8           0        0.000000    0.000000    3.433387
      3          8           0        0.000000    0.000000   -3.433387
      4          8           0        0.000000    0.000000   -2.081007
 ---------------------------------------------------------------------

 SCF Done:  E(UHF) =  -298.771909418     A.U. after   16 cycles
 E2 =    -0.1171436311D+01 EUMP2 =    -0.29994334572910D+03
 CCSD(T)
 CCSD(T)= -0.29992520335D+03

 Unable to determine electronic state:  an orbital has unidentified symmetry.
 Alpha  occ. eigenvalues --  -20.24212 -20.24211 -20.20390 -20.20390  -1.11246
 Alpha  occ. eigenvalues --   -1.11241  -0.75090  -0.75038  -0.29877  -0.29863
 Alpha  occ. eigenvalues --   -0.27181  -0.27168  -0.25127  -0.24502  -0.09227
 Alpha  occ. eigenvalues --   -0.09207  -0.06713  -0.06689   0.42712
 Alpha virt. eigenvalues --    0.55328   1.04436   1.10220   1.10972   1.11272
 Alpha virt. eigenvalues --    1.12338   1.12590   1.13896   1.19592   1.20223
 Alpha virt. eigenvalues --    1.20771   1.21081   1.21453   1.33984   1.34007

  Beta  occ. eigenvalues --  -20.18407 -20.18407 -20.15353 -20.15353  -0.95090
  Beta  occ. eigenvalues --   -0.95081  -0.56097  -0.55996  -0.16009  -0.15827
  Beta  occ. eigenvalues --   -0.10254  -0.09886  -0.03058  -0.03042   0.24636
  Beta virt. eigenvalues --    0.34517   0.53697   0.53810   0.76809   0.80327
  Beta virt. eigenvalues --    1.13272   1.17251   1.18346   1.18528   1.18762
  Beta virt. eigenvalues --    1.20585   1.20723   1.24752   1.27592   1.28194

 Mulliken charges and spin densities:
               1          2
     1  O   -0.383126   1.113735
     2  O   -0.616874   0.886265
     3  O   -0.616874   0.886265
     4  O   -0.383126   1.113735
 Sum of Mulliken charges =  -2.00000   4.00000

 Dipole moment (field-independent basis, Debye):
    X=             -0.0000    Y=              0.0000    Z=             -0.0000  Tot=              0.0000
 Quadrupole moment (field-independent basis, Debye-Ang):
   XX=            -25.1502   YY=            -23.9885   ZZ=           -114.6722
   XY=             -0.0000   XZ=              0.0000   YZ=             -0.0000

 Normal termination of Gaussian 16 at Sat Jan  7 07:12:39 2023.
