 Gaussian 16, Revision A.03,
 Gaussian 16:  ES64L-G16RevA.03 25-Dec-2016

 ------------------------------------------------
 #p CCSD(T,MaxCyc=300)/cc-pVTZ Guess=Read SCF=XQC
 ------------------------------------------------

 ---------
 O2_O2_257
 ---------
 Symbolic Z-matrix:
 Charge = -2 Multiplicity = 5

                         Standard orientation:
 ---------------------------------------------------------------------
 Center     Atomic      Atomic             Coordinates (Angstroms)
 Number     Number       Type             X           Y           Z
 ---------------------------------------------------------------------
      1          8           0        0.000000    0.000000    2.611954
      2          8           0        0.000000    0.000000    3.964334
      3          8           0        0.000000    0.000000   -3.964334
      4          8           0        0.000000    0.000000   -2.611954
 ---------------------------------------------------------------------

 SCF Done:  E(UHF) =  -298.769826022     A.U. after    9 cycles
 E2 =    -0.1254227279D+01 EUMP2 =    -0.30002405330107D+03
 CCSD(T)
 CCSD(T)= -0.29994744694D+03

 Unable to determine electronic state:  an orbital has unidentified symmetry.
 Alpha  occ. eigenvalues --  -20.24929 -20.24929 -20.21935 -20.21935  -1.12565
 Alpha  occ. eigenvalues --   -1.12564  -0.76533  -0.76522  -0.31086  -0.31085
 Alpha  occ. eigenvalues --   -0.28421  -0.28420  -0.26702  -0.26442  -0.10588
 Alpha  occ. eigenvalues --   -0.10587  -0.08048  -0.08047   0.42657
 Alpha virt. eigenvalues --    0.51353   1.06034   1.06621   1.09729   1.09745
 Alpha virt. eigenvalues --    1.11086   1.11099   1.14153   1.14764   1.18411
 Alpha virt. eigenvalues --    1.18449   1.19603   1.19645   1.32646   1.32650

  Beta  occ. eigenvalues --  -20.19079 -20.19079 -20.16786 -20.16786  -0.96198
  Beta  occ. eigenvalues --   -0.96195  -0.57336  -0.57304  -0.17194  -0.17180
  Beta  occ. eigenvalues --   -0.11442  -0.11241  -0.04266  -0.04265   0.24241
  Beta virt. eigenvalues --    0.32344   0.52348   0.52353   0.76902   0.77224
  Beta virt. eigenvalues --    1.14778   1.15157   1.17291   1.17301   1.17893
  Beta virt. eigenvalues --    1.18214   1.19361   1.19366   1.26435   1.26455

 Mulliken charges and spin densities:
               1          2
     1  O   -0.403748   1.097151
     2  O   -0.596252   0.902849
     3  O   -0.596252   0.902849
     4  O   -0.403748   1.097151
 Sum of Mulliken charges =  -2.00000   4.00000

 Dipole moment (field-independent basis, Debye):
    X=             -0.0000    Y=              0.0000    Z=             -0.0000  Tot=              0.0000
 Quadrupole moment (field-independent basis, Debye-Ang):
   XX=            -25.1318   YY=            -23.9670   ZZ=           -145.7515
   XY=             -0.0000   XZ=              0.0000   YZ=             -0.0000

 Normal termination of Gaussian 16 at Sat Jan  7 09:08:53 2023.
