 Gaussian 16, Revision A.03,
 Gaussian 16:  ES64L-G16RevA.03 25-Dec-2016

 ------------------------------------------------
 #p CCSD(T,MaxCyc=300)/cc-pVTZ Guess=Read SCF=XQC
 ------------------------------------------------

 ---------
 O2_O2_124
 ---------
 Symbolic Z-matrix:
 Charge = -2 Multiplicity = 5

                         Standard orientation:
 ---------------------------------------------------------------------
 Center     Atomic      Atomic             Coordinates (Angstroms)
 Number     Number       Type             X           Y           Z
 ---------------------------------------------------------------------
      1          8           0        0.000000    0.000000    1.670408
      2          8           0        0.000000    0.000000    3.022788
      3          8           0        0.000000    0.000000   -3.022788
      4          8           0        0.000000    0.000000   -1.670408
 ---------------------------------------------------------------------

 SCF Done:  E(UHF) =  -298.782903199     A.U. after   16 cycles
 E2 =    -0.1102322477D+01 EUMP2 =    -0.29988522567652D+03
 CCSD(T)
 CCSD(T)= -0.29990302503D+03

 Unable to determine electronic state:  an orbital has unidentified symmetry.
 Alpha  occ. eigenvalues --  -20.23638 -20.23637 -20.18643 -20.18643  -1.09814
 Alpha  occ. eigenvalues --   -1.09781  -0.73527  -0.73280  -0.28550  -0.28459
 Alpha  occ. eigenvalues --   -0.25910  -0.25819  -0.23505  -0.21852  -0.07838
 Alpha  occ. eigenvalues --   -0.07707  -0.05279  -0.05125   0.41842
 Alpha virt. eigenvalues --    0.61077   1.02898   1.11427   1.11647   1.13057
 Alpha virt. eigenvalues --    1.13383   1.13419   1.14612   1.19799   1.20932
 Alpha virt. eigenvalues --    1.23795   1.25133   1.35306   1.35558   1.42529

  Beta  occ. eigenvalues --  -20.17929 -20.17928 -20.13680 -20.13680  -0.93934
  Beta  occ. eigenvalues --   -0.93884  -0.54783  -0.54388  -0.14908  -0.14055
  Beta  occ. eigenvalues --   -0.08987  -0.08297  -0.01613  -0.01511   0.24867
  Beta virt. eigenvalues --    0.37307   0.54922   0.55606   0.77288   0.83882
  Beta virt. eigenvalues --    1.11261   1.18141   1.19179   1.19406   1.20643
  Beta virt. eigenvalues --    1.21587   1.22488   1.27773   1.30621   1.31833

 Mulliken charges and spin densities:
               1          2
     1  O   -0.364622   1.124924
     2  O   -0.635378   0.875076
     3  O   -0.635378   0.875076
     4  O   -0.364622   1.124924
 Sum of Mulliken charges =  -2.00000   4.00000

 Dipole moment (field-independent basis, Debye):
    X=             -0.0000    Y=              0.0000    Z=             -0.0000  Tot=              0.0000
 Quadrupole moment (field-independent basis, Debye-Ang):
   XX=            -25.1836   YY=            -24.0215   ZZ=            -93.2625
   XY=             -0.0000   XZ=              0.0000   YZ=             -0.0000

 Normal termination of Gaussian 16 at Sat Jan  7 05:45:48 2023.
