 Gaussian 16, Revision A.03,
 Gaussian 16:  ES64L-G16RevA.03 25-Dec-2016

 ------------------------------------------------
 #p CCSD(T,MaxCyc=300)/cc-pVTZ Guess=Read SCF=XQC
 ------------------------------------------------

 --------
 O2_O2_76
 --------
 Symbolic Z-matrix:
 Charge = -2 Multiplicity = 5

                         Standard orientation:
 ---------------------------------------------------------------------
 Center     Atomic      Atomic             Coordinates (Angstroms)
 Number     Number       Type             X           Y           Z
 ---------------------------------------------------------------------
      1          8           0        0.000000    0.000000    1.330602
      2          8           0        0.000000    0.000000    2.682982
      3          8           0        0.000000    0.000000   -2.682982
      4          8           0        0.000000    0.000000   -1.330602
 ---------------------------------------------------------------------

 SCF Done:  E(UHF) =  -298.780789831     A.U. after   14 cycles
 E2 =    -0.1066896798D+01 EUMP2 =    -0.29984768662908D+03
 CCSD(T)
 CCSD(T)= -0.29987935870D+03

 Unable to determine electronic state:  an orbital has unidentified symmetry.
 Alpha  occ. eigenvalues --  -20.20113 -20.20111 -20.16355 -20.16355  -1.07470
 Alpha  occ. eigenvalues --   -1.07285  -0.71577  -0.70524  -0.25788  -0.25432
 Alpha  occ. eigenvalues --   -0.23564  -0.23144  -0.22526  -0.18393  -0.05823
 Alpha  occ. eigenvalues --   -0.05163  -0.02946  -0.02329   0.41920
 Alpha virt. eigenvalues --    0.65545   1.10602   1.12498   1.13467   1.13470
 Alpha virt. eigenvalues --    1.15634   1.16473   1.17279   1.19554   1.21206
 Alpha virt. eigenvalues --    1.31199   1.32195   1.37161   1.37796   1.70582

  Beta  occ. eigenvalues --  -20.14364 -20.14362 -20.11083 -20.11083  -0.91011
  Beta  occ. eigenvalues --   -0.90736  -0.52617  -0.50985  -0.13091  -0.09957
  Beta  occ. eigenvalues --   -0.06946  -0.05829   0.01060   0.01696   0.25609
  Beta virt. eigenvalues --    0.43377   0.56629   0.58549   0.81680   0.87697
  Beta virt. eigenvalues --    1.18712   1.19092   1.20932   1.22439   1.22692
  Beta virt. eigenvalues --    1.23606   1.25802   1.27753   1.31301   1.38838

 Mulliken charges and spin densities:
               1          2
     1  O   -0.376051   1.035445
     2  O   -0.623949   0.964555
     3  O   -0.623949   0.964555
     4  O   -0.376051   1.035445
 Sum of Mulliken charges =  -2.00000   4.00000

 Dipole moment (field-independent basis, Debye):
    X=             -0.0000    Y=             -0.0000    Z=              0.0000  Tot=              0.0000
 Quadrupole moment (field-independent basis, Debye-Ang):
   XX=            -25.2406   YY=            -24.0338   ZZ=            -78.0935
   XY=             -0.0000   XZ=              0.0000   YZ=             -0.0000

 Normal termination of Gaussian 16 at Sat Jan  7 04:38:16 2023.
