 Gaussian 16, Revision A.03,
 Gaussian 16:  ES64L-G16RevA.03 25-Dec-2016

 ------------------------------------------------
 #p CCSD(T,MaxCyc=300)/cc-pVTZ Guess=Read SCF=XQC
 ------------------------------------------------

 ---------
 O2_O2_296
 ---------
 Symbolic Z-matrix:
 Charge = -2 Multiplicity = 5

                         Standard orientation:
 ---------------------------------------------------------------------
 Center     Atomic      Atomic             Coordinates (Angstroms)
 Number     Number       Type             X           Y           Z
 ---------------------------------------------------------------------
      1          8           0        0.000000    0.000000    2.888046
      2          8           0        0.000000    0.000000    4.240426
      3          8           0        0.000000    0.000000   -4.240426
      4          8           0        0.000000    0.000000   -2.888046
 ---------------------------------------------------------------------

 SCF Done:  E(UHF) =  -298.772290371     A.U. after    9 cycles
 E2 =    -0.1287434859D+01 EUMP2 =    -0.30005972523010D+03
 CCSD(T)
 CCSD(T)= -0.29995609674D+03

 Unable to determine electronic state:  an orbital has unidentified symmetry.
 Alpha  occ. eigenvalues --  -20.25427 -20.25427 -20.22676 -20.22676  -1.13182
 Alpha  occ. eigenvalues --   -1.13181  -0.77179  -0.77172  -0.31683  -0.31683
 Alpha  occ. eigenvalues --   -0.29032  -0.29031  -0.27335  -0.27142  -0.11240
 Alpha  occ. eigenvalues --   -0.11240  -0.08686  -0.08686   0.42392
 Alpha virt. eigenvalues --    0.50217   1.05546   1.05663   1.09117   1.09122
 Alpha virt. eigenvalues --    1.10475   1.10478   1.13604   1.13871   1.17785
 Alpha virt. eigenvalues --    1.17801   1.18978   1.18995   1.32038   1.32040

  Beta  occ. eigenvalues --  -20.19602 -20.19602 -20.17490 -20.17490  -0.96808
  Beta  occ. eigenvalues --   -0.96806  -0.57962  -0.57939  -0.17826  -0.17822
  Beta  occ. eigenvalues --   -0.12047  -0.11891  -0.04857  -0.04857   0.23954
  Beta virt. eigenvalues --    0.31393   0.51701   0.51701   0.76344   0.76399
  Beta virt. eigenvalues --    1.14265   1.14335   1.16675   1.16677   1.17301
  Beta virt. eigenvalues --    1.17346   1.18762   1.18763   1.25813   1.25816

 Mulliken charges and spin densities:
               1          2
     1  O   -0.412685   1.090090
     2  O   -0.587315   0.909910
     3  O   -0.587315   0.909910
     4  O   -0.412685   1.090090
 Sum of Mulliken charges =  -2.00000   4.00000

 Dipole moment (field-independent basis, Debye):
    X=             -0.0000    Y=              0.0000    Z=             -0.0000  Tot=              0.0000
 Quadrupole moment (field-independent basis, Debye-Ang):
   XX=            -25.1284   YY=            -23.9644   ZZ=           -163.7589
   XY=             -0.0000   XZ=              0.0000   YZ=             -0.0000

 Normal termination of Gaussian 16 at Sat Jan  7 10:09:45 2023.
