 Gaussian 16, Revision A.03,
 Gaussian 16:  ES64L-G16RevA.03 25-Dec-2016

 ------------------------------------------------
 #p CCSD(T,MaxCyc=300)/cc-pVTZ Guess=Read SCF=XQC
 ------------------------------------------------

 ---------
 O2_O2_123
 ---------
 Symbolic Z-matrix:
 Charge = -2 Multiplicity = 5

                         Standard orientation:
 ---------------------------------------------------------------------
 Center     Atomic      Atomic             Coordinates (Angstroms)
 Number     Number       Type             X           Y           Z
 ---------------------------------------------------------------------
      1          8           0        0.000000    0.000000    1.663329
      2          8           0        0.000000    0.000000    3.015709
      3          8           0        0.000000    0.000000   -3.015709
      4          8           0        0.000000    0.000000   -1.663329
 ---------------------------------------------------------------------

 SCF Done:  E(UHF) =  -298.782982953     A.U. after   16 cycles
 E2 =    -0.1101527909D+01 EUMP2 =    -0.29988451086172D+03
 CCSD(T)
 CCSD(T)= -0.29990260215D+03

 Unable to determine electronic state:  an orbital has unidentified symmetry.
 Alpha  occ. eigenvalues --  -20.23604 -20.23603 -20.18600 -20.18600  -1.09777
 Alpha  occ. eigenvalues --   -1.09742  -0.73492  -0.73237  -0.28509  -0.28416
 Alpha  occ. eigenvalues --   -0.25875  -0.25781  -0.23478  -0.21794  -0.07805
 Alpha  occ. eigenvalues --   -0.07670  -0.05241  -0.05083   0.41832
 Alpha virt. eigenvalues --    0.61176   1.02992   1.11425   1.11657   1.13066
 Alpha virt. eigenvalues --    1.13424   1.13432   1.14661   1.19795   1.20930
 Alpha virt. eigenvalues --    1.23900   1.25238   1.35339   1.35596   1.43061

  Beta  occ. eigenvalues --  -20.17894 -20.17893 -20.13635 -20.13635  -0.93894
  Beta  occ. eigenvalues --   -0.93842  -0.54745  -0.54340  -0.14876  -0.14000
  Beta  occ. eigenvalues --   -0.08950  -0.08252  -0.01566  -0.01460   0.24877
  Beta virt. eigenvalues --    0.37387   0.54949   0.55651   0.77347   0.83950
  Beta virt. eigenvalues --    1.11329   1.18153   1.19206   1.19426   1.20686
  Beta virt. eigenvalues --    1.21609   1.22537   1.27770   1.30617   1.31942

 Mulliken charges and spin densities:
               1          2
     1  O   -0.364429   1.124425
     2  O   -0.635571   0.875575
     3  O   -0.635571   0.875575
     4  O   -0.364429   1.124425
 Sum of Mulliken charges =  -2.00000   4.00000

 Dipole moment (field-independent basis, Debye):
    X=             -0.0000    Y=             -0.0000    Z=              0.0000  Tot=              0.0000
 Quadrupole moment (field-independent basis, Debye-Ang):
   XX=            -25.1844   YY=            -24.0222   ZZ=            -92.9236
   XY=             -0.0000   XZ=              0.0000   YZ=             -0.0000

 Normal termination of Gaussian 16 at Sat Jan  7 05:44:16 2023.
