 Gaussian 16, Revision A.03,
 Gaussian 16:  ES64L-G16RevA.03 25-Dec-2016

 ------------------------------------------------
 #p CCSD(T,MaxCyc=300)/cc-pVTZ Guess=Read SCF=XQC
 ------------------------------------------------

 -------
 O2_O2_7
 -------
 Symbolic Z-matrix:
 Charge = -2 Multiplicity = 5

                         Standard orientation:
 ---------------------------------------------------------------------
 Center     Atomic      Atomic             Coordinates (Angstroms)
 Number     Number       Type             X           Y           Z
 ---------------------------------------------------------------------
      1          8           0        0.000000    0.000000    0.842130
      2          8           0        0.000000    0.000000    2.194511
      3          8           0        0.000000    0.000000   -2.194511
      4          8           0        0.000000    0.000000   -0.842130
 ---------------------------------------------------------------------

 SCF Done:  E(UHF) =  -298.736000549     A.U. after   14 cycles
 E2 =    -0.9878402626D+00 EUMP2 =    -0.29972384081160D+03
 CCSD(T)
 CCSD(T)= -0.29977805191D+03

 Unable to determine electronic state:  an orbital has unidentified symmetry.
 Alpha  occ. eigenvalues --  -20.12351 -20.12337 -20.10191 -20.10191  -1.04526
 Alpha  occ. eigenvalues --   -1.01681  -0.72738  -0.62052  -0.25375  -0.22246
 Alpha  occ. eigenvalues --   -0.20764  -0.19411  -0.16545  -0.05950  -0.03136
 Alpha  occ. eigenvalues --    0.00275   0.03188   0.05007   0.40074
 Alpha virt. eigenvalues --    0.81465   1.10223   1.12026   1.17341   1.18362
 Alpha virt. eigenvalues --    1.19037   1.21578   1.24748   1.26431   1.38523
 Alpha virt. eigenvalues --    1.39257   1.43406   1.43716   1.54180   1.93074

  Beta  occ. eigenvalues --  -20.06836 -20.06828 -20.04352 -20.04352  -0.87438
  Beta  occ. eigenvalues --   -0.83338  -0.55715  -0.41199  -0.13788  -0.04139
  Beta  occ. eigenvalues --   -0.00716   0.00977   0.05793   0.08426   0.22932
  Beta virt. eigenvalues --    0.58706   0.59769   0.66556   0.88063   0.95795
  Beta virt. eigenvalues --    1.20577   1.23569   1.25585   1.26459   1.26831
  Beta virt. eigenvalues --    1.31895   1.34419   1.37731   1.40865   1.41419

 Mulliken charges and spin densities:
               1          2
     1  O   -0.337429   0.856300
     2  O   -0.662571   1.143700
     3  O   -0.662571   1.143700
     4  O   -0.337429   0.856300
 Sum of Mulliken charges =  -2.00000   4.00000

 Dipole moment (field-independent basis, Debye):
    X=             -0.0000    Y=              0.0000    Z=              0.0000  Tot=              0.0000
 Quadrupole moment (field-independent basis, Debye-Ang):
   XX=            -25.2093   YY=            -23.8443   ZZ=            -63.8460
   XY=             -0.0000   XZ=              0.0000   YZ=             -0.0000

 Normal termination of Gaussian 16 at Sat Jan  7 03:03:47 2023.
