 Gaussian 16, Revision A.03,
 Gaussian 16:  ES64L-G16RevA.03 25-Dec-2016

 ------------------------------------------------
 #p CCSD(T,MaxCyc=300)/cc-pVTZ Guess=Read SCF=XQC
 ------------------------------------------------

 ---------
 O2_O2_292
 ---------
 Symbolic Z-matrix:
 Charge = -2 Multiplicity = 5

                         Standard orientation:
 ---------------------------------------------------------------------
 Center     Atomic      Atomic             Coordinates (Angstroms)
 Number     Number       Type             X           Y           Z
 ---------------------------------------------------------------------
      1          8           0        0.000000    0.000000    2.859729
      2          8           0        0.000000    0.000000    4.212109
      3          8           0        0.000000    0.000000   -4.212109
      4          8           0        0.000000    0.000000   -2.859729
 ---------------------------------------------------------------------

 SCF Done:  E(UHF) =  -298.772020605     A.U. after    9 cycles
 E2 =    -0.1284163868D+01 EUMP2 =    -0.30005618447297D+03
 CCSD(T)
 CCSD(T)= -0.29995528058D+03

 Unable to determine electronic state:  an orbital has unidentified symmetry.
 Alpha  occ. eigenvalues --  -20.25378 -20.25378 -20.22604 -20.22604  -1.13122
 Alpha  occ. eigenvalues --   -1.13122  -0.77116  -0.77110  -0.31625  -0.31625
 Alpha  occ. eigenvalues --   -0.28972  -0.28972  -0.27275  -0.27076  -0.11177
 Alpha  occ. eigenvalues --   -0.11177  -0.08624  -0.08624   0.42420
 Alpha virt. eigenvalues --    0.50320   1.05604   1.05742   1.09176   1.09181
 Alpha virt. eigenvalues --    1.10534   1.10538   1.13664   1.13948   1.17846
 Alpha virt. eigenvalues --    1.17863   1.19039   1.19057   1.32097   1.32099

  Beta  occ. eigenvalues --  -20.19549 -20.19549 -20.17421 -20.17421  -0.96748
  Beta  occ. eigenvalues --   -0.96746  -0.57901  -0.57877  -0.17764  -0.17760
  Beta  occ. eigenvalues --   -0.11988  -0.11828  -0.04800  -0.04800   0.23983
  Beta virt. eigenvalues --    0.31484   0.51763   0.51764   0.76404   0.76471
  Beta virt. eigenvalues --    1.14324   1.14407   1.16735   1.16737   1.17364
  Beta virt. eigenvalues --    1.17419   1.18820   1.18821   1.25873   1.25877

 Mulliken charges and spin densities:
               1          2
     1  O   -0.411836   1.090776
     2  O   -0.588164   0.909224
     3  O   -0.588164   0.909224
     4  O   -0.411836   1.090776
 Sum of Mulliken charges =  -2.00000   4.00000

 Dipole moment (field-independent basis, Debye):
    X=             -0.0000    Y=             -0.0000    Z=             -0.0000  Tot=              0.0000
 Quadrupole moment (field-independent basis, Debye-Ang):
   XX=            -25.1286   YY=            -23.9646   ZZ=           -161.8456
   XY=             -0.0000   XZ=              0.0000   YZ=             -0.0000

 Normal termination of Gaussian 16 at Sat Jan  7 10:03:39 2023.
