 Gaussian 16, Revision A.03,
 Gaussian 16:  ES64L-G16RevA.03 25-Dec-2016

 ------------------------------------------------
 #p CCSD(T,MaxCyc=300)/cc-pVTZ Guess=Read SCF=XQC
 ------------------------------------------------

 ---------
 O2_O2_116
 ---------
 Symbolic Z-matrix:
 Charge = -2 Multiplicity = 5

                         Standard orientation:
 ---------------------------------------------------------------------
 Center     Atomic      Atomic             Coordinates (Angstroms)
 Number     Number       Type             X           Y           Z
 ---------------------------------------------------------------------
      1          8           0        0.000000    0.000000    1.613774
      2          8           0        0.000000    0.000000    2.966154
      3          8           0        0.000000    0.000000   -2.966154
      4          8           0        0.000000    0.000000   -1.613774
 ---------------------------------------------------------------------

 SCF Done:  E(UHF) =  -298.783324356     A.U. after   16 cycles
 E2 =    -0.1096385148D+01 EUMP2 =    -0.29987970950454D+03
 CCSD(T)
 CCSD(T)= -0.29989958288D+03

 Unable to determine electronic state:  an orbital has unidentified symmetry.
 Alpha  occ. eigenvalues --  -20.23317 -20.23316 -20.18294 -20.18294  -1.09499
 Alpha  occ. eigenvalues --   -1.09454  -0.73234  -0.72922  -0.28196  -0.28080
 Alpha  occ. eigenvalues --   -0.25611  -0.25494  -0.23293  -0.21380  -0.07569
 Alpha  occ. eigenvalues --   -0.07399  -0.04959  -0.04766   0.41773
 Alpha virt. eigenvalues --    0.61849   1.03846   1.11389   1.11733   1.13123
 Alpha virt. eigenvalues --    1.13464   1.13780   1.15020   1.19758   1.20917
 Alpha virt. eigenvalues --    1.24687   1.26024   1.35585   1.35879   1.46924

  Beta  occ. eigenvalues --  -20.17599 -20.17599 -20.13307 -20.13307  -0.93582
  Beta  occ. eigenvalues --   -0.93516  -0.54462  -0.53969  -0.14636  -0.13582
  Beta  occ. eigenvalues --   -0.08674  -0.07919  -0.01206  -0.01071   0.24957
  Beta virt. eigenvalues --    0.37996   0.55143   0.55978   0.77820   0.84435
  Beta virt. eigenvalues --    1.11965   1.18235   1.19408   1.19577   1.20994
  Beta virt. eigenvalues --    1.21765   1.22912   1.27741   1.30602   1.32770

 Mulliken charges and spin densities:
               1          2
     1  O   -0.363728   1.119097
     2  O   -0.636272   0.880903
     3  O   -0.636272   0.880903
     4  O   -0.363728   1.119097
 Sum of Mulliken charges =  -2.00000   4.00000

 Dipole moment (field-independent basis, Debye):
    X=             -0.0000    Y=              0.0000    Z=             -0.0000  Tot=              0.0000
 Quadrupole moment (field-independent basis, Debye-Ang):
   XX=            -25.1905   YY=            -24.0269   ZZ=            -90.5721
   XY=             -0.0000   XZ=              0.0000   YZ=             -0.0000

 Normal termination of Gaussian 16 at Sat Jan  7 05:33:43 2023.
