 Gaussian 16, Revision A.03,
 Gaussian 16:  ES64L-G16RevA.03 25-Dec-2016

 ------------------------------------------------
 #p CCSD(T,MaxCyc=300)/cc-pVTZ Guess=Read SCF=XQC
 ------------------------------------------------

 ---------
 O2_O2_206
 ---------
 Symbolic Z-matrix:
 Charge = -2 Multiplicity = 5

                         Standard orientation:
 ---------------------------------------------------------------------
 Center     Atomic      Atomic             Coordinates (Angstroms)
 Number     Number       Type             X           Y           Z
 ---------------------------------------------------------------------
      1          8           0        0.000000    0.000000    2.250910
      2          8           0        0.000000    0.000000    3.603290
      3          8           0        0.000000    0.000000   -3.603290
      4          8           0        0.000000    0.000000   -2.250910
 ---------------------------------------------------------------------

 SCF Done:  E(UHF) =  -298.769321906     A.U. after   12 cycles
 E2 =    -0.1201729609D+01 EUMP2 =    -0.29997105151537D+03
 CCSD(T)
 CCSD(T)= -0.29993321785D+03

 Unable to determine electronic state:  an orbital has unidentified symmetry.
 Alpha  occ. eigenvalues --  -20.24353 -20.24352 -20.20890 -20.20890  -1.11675
 Alpha  occ. eigenvalues --   -1.11674  -0.75576  -0.75547  -0.30252  -0.30246
 Alpha  occ. eigenvalues --   -0.27568  -0.27563  -0.25696  -0.25249  -0.09663
 Alpha  occ. eigenvalues --   -0.09655  -0.07140  -0.07130   0.42833
 Alpha virt. eigenvalues --    0.53644   1.05627   1.08955   1.10595   1.10716
 Alpha virt. eigenvalues --    1.11954   1.12054   1.14267   1.17533   1.19267
 Alpha virt. eigenvalues --    1.19521   1.20456   1.20731   1.33544   1.33545

  Beta  occ. eigenvalues --  -20.18509 -20.18509 -20.15807 -20.15807  -0.95401
  Beta  occ. eigenvalues --   -0.95395  -0.56476  -0.56412  -0.16352  -0.16265
  Beta  occ. eigenvalues --   -0.10615  -0.10318  -0.03434  -0.03428   0.24560
  Beta virt. eigenvalues --    0.33772   0.53269   0.53314   0.77120   0.79054
  Beta virt. eigenvalues --    1.14489   1.16653   1.18153   1.18246   1.18277
  Beta virt. eigenvalues --    1.20206   1.20259   1.21140   1.27279   1.27506

 Mulliken charges and spin densities:
               1          2
     1  O   -0.390127   1.107541
     2  O   -0.609873   0.892459
     3  O   -0.609873   0.892459
     4  O   -0.390127   1.107541
 Sum of Mulliken charges =  -2.00000   4.00000

 Dipole moment (field-independent basis, Debye):
    X=             -0.0000    Y=              0.0000    Z=              0.0000  Tot=              0.0000
 Quadrupole moment (field-independent basis, Debye-Ang):
   XX=            -25.1417   YY=            -23.9780   ZZ=           -124.1989
   XY=             -0.0000   XZ=              0.0000   YZ=             -0.0000

 Normal termination of Gaussian 16 at Sat Jan  7 07:49:52 2023.
