 Gaussian 16, Revision A.03,
 Gaussian 16:  ES64L-G16RevA.03 25-Dec-2016

 ------------------------------------------------
 #p CCSD(T,MaxCyc=300)/cc-pVTZ Guess=Read SCF=XQC
 ------------------------------------------------

 ---------
 O2_O2_181
 ---------
 Symbolic Z-matrix:
 Charge = -2 Multiplicity = 5

                         Standard orientation:
 ---------------------------------------------------------------------
 Center     Atomic      Atomic             Coordinates (Angstroms)
 Number     Number       Type             X           Y           Z
 ---------------------------------------------------------------------
      1          8           0        0.000000    0.000000    2.073927
      2          8           0        0.000000    0.000000    3.426307
      3          8           0        0.000000    0.000000   -3.426307
      4          8           0        0.000000    0.000000   -2.073927
 ---------------------------------------------------------------------

 SCF Done:  E(UHF) =  -298.772070757     A.U. after   12 cycles
 E2 =    -0.1170107844D+01 EUMP2 =    -0.29994217860064D+03
 CCSD(T)
 CCSD(T)= -0.29992485302D+03

 Unable to determine electronic state:  an orbital has unidentified symmetry.
 Alpha  occ. eigenvalues --  -20.24208 -20.24208 -20.20369 -20.20369  -1.11227
 Alpha  occ. eigenvalues --   -1.11223  -0.75069  -0.75015  -0.29861  -0.29847
 Alpha  occ. eigenvalues --   -0.27165  -0.27152  -0.25102  -0.24467  -0.09208
 Alpha  occ. eigenvalues --   -0.09188  -0.06695  -0.06670   0.42703
 Alpha virt. eigenvalues --    0.55409   1.04371   1.10265   1.10987   1.11298
 Alpha virt. eigenvalues --    1.12353   1.12615   1.13877   1.19604   1.20257
 Alpha virt. eigenvalues --    1.20781   1.21287   1.21489   1.34003   1.34027

  Beta  occ. eigenvalues --  -20.18406 -20.18405 -20.15334 -20.15334  -0.95078
  Beta  occ. eigenvalues --   -0.95068  -0.56081  -0.55979  -0.15996  -0.15809
  Beta  occ. eigenvalues --   -0.10240  -0.09868  -0.03042  -0.03026   0.24638
  Beta virt. eigenvalues --    0.34550   0.53715   0.53832   0.76792   0.80384
  Beta virt. eigenvalues --    1.13205   1.17271   1.18351   1.18543   1.18786
  Beta virt. eigenvalues --    1.20600   1.20744   1.24953   1.27603   1.28228

 Mulliken charges and spin densities:
               1          2
     1  O   -0.382829   1.114026
     2  O   -0.617171   0.885974
     3  O   -0.617171   0.885974
     4  O   -0.382829   1.114026
 Sum of Mulliken charges =  -2.00000   4.00000

 Dipole moment (field-independent basis, Debye):
    X=             -0.0000    Y=             -0.0000    Z=             -0.0000  Tot=              0.0000
 Quadrupole moment (field-independent basis, Debye-Ang):
   XX=            -25.1506   YY=            -23.9890   ZZ=           -114.2815
   XY=             -0.0000   XZ=              0.0000   YZ=             -0.0000

 Normal termination of Gaussian 16 at Sat Jan  7 07:11:06 2023.
