 Gaussian 16, Revision A.03,
 Gaussian 16:  ES64L-G16RevA.03 25-Dec-2016

 ------------------------------------------------
 #p CCSD(T,MaxCyc=300)/cc-pVTZ Guess=Read SCF=XQC
 ------------------------------------------------

 ---------
 O2_O2_250
 ---------
 Symbolic Z-matrix:
 Charge = -2 Multiplicity = 5

                         Standard orientation:
 ---------------------------------------------------------------------
 Center     Atomic      Atomic             Coordinates (Angstroms)
 Number     Number       Type             X           Y           Z
 ---------------------------------------------------------------------
      1          8           0        0.000000    0.000000    2.562398
      2          8           0        0.000000    0.000000    3.914778
      3          8           0        0.000000    0.000000   -3.914778
      4          8           0        0.000000    0.000000   -2.562398
 ---------------------------------------------------------------------

 SCF Done:  E(UHF) =  -298.769476527     A.U. after   15 cycles
 E2 =    -0.1247814327D+01 EUMP2 =    -0.30001729085378D+03
 CCSD(T)
 CCSD(T)= -0.29994570956D+03

 Unable to determine electronic state:  an orbital has unidentified symmetry.
 Alpha  occ. eigenvalues --  -20.24839 -20.24839 -20.21795 -20.21795  -1.12447
 Alpha  occ. eigenvalues --   -1.12446  -0.76409  -0.76396  -0.30973  -0.30971
 Alpha  occ. eigenvalues --   -0.28305  -0.28304  -0.26578  -0.26300  -0.10464
 Alpha  occ. eigenvalues --   -0.10463  -0.07927  -0.07925   0.42700
 Alpha virt. eigenvalues --    0.51597   1.06084   1.06855   1.09846   1.09867
 Alpha virt. eigenvalues --    1.11203   1.11220   1.14230   1.14979   1.18529
 Alpha virt. eigenvalues --    1.18578   1.19722   1.19774   1.32763   1.32767

  Beta  occ. eigenvalues --  -20.18986 -20.18986 -20.16653 -20.16653  -0.96084
  Beta  occ. eigenvalues --   -0.96082  -0.57218  -0.57183  -0.17076  -0.17057
  Beta  occ. eigenvalues --   -0.11328  -0.11117  -0.04153  -0.04152   0.24292
  Beta virt. eigenvalues --    0.32528   0.52472   0.52478   0.76984   0.77412
  Beta virt. eigenvalues --    1.14840   1.15340   1.17408   1.17422   1.17983
  Beta virt. eigenvalues --    1.18430   1.19475   1.19482   1.26552   1.26582

 Mulliken charges and spin densities:
               1          2
     1  O   -0.402004   1.098480
     2  O   -0.597996   0.901520
     3  O   -0.597996   0.901520
     4  O   -0.402004   1.098480
 Sum of Mulliken charges =  -2.00000   4.00000

 Dipole moment (field-independent basis, Debye):
    X=             -0.0000    Y=              0.0000    Z=             -0.0000  Tot=              0.0000
 Quadrupole moment (field-independent basis, Debye-Ang):
   XX=            -25.1327   YY=            -23.9679   ZZ=           -142.6669
   XY=             -0.0000   XZ=              0.0000   YZ=             -0.0000

 Normal termination of Gaussian 16 at Sat Jan  7 08:57:44 2023.
