 Gaussian 16, Revision A.03,
 Gaussian 16:  ES64L-G16RevA.03 25-Dec-2016

 ------------------------------------------------
 #p CCSD(T,MaxCyc=300)/cc-pVTZ Guess=Read SCF=XQC
 ------------------------------------------------

 ---------
 O2_O2_100
 ---------
 Symbolic Z-matrix:
 Charge = -2 Multiplicity = 5

                         Standard orientation:
 ---------------------------------------------------------------------
 Center     Atomic      Atomic             Coordinates (Angstroms)
 Number     Number       Type             X           Y           Z
 ---------------------------------------------------------------------
      1          8           0        0.000000    0.000000    1.500504
      2          8           0        0.000000    0.000000    2.852885
      3          8           0        0.000000    0.000000   -2.852885
      4          8           0        0.000000    0.000000   -1.500504
 ---------------------------------------------------------------------

 SCF Done:  E(UHF) =  -298.782865765     A.U. after   16 cycles
 E2 =    -0.1085732775D+01 EUMP2 =    -0.29986859854060D+03
 CCSD(T)
 CCSD(T)= -0.29989220613D+03

 Unable to determine electronic state:  an orbital has unidentified symmetry.
 Alpha  occ. eigenvalues --  -20.22270 -20.22269 -20.17601 -20.17601  -1.08747
 Alpha  occ. eigenvalues --   -1.08669  -0.72590  -0.72090  -0.27289  -0.27105
 Alpha  occ. eigenvalues --   -0.24875  -0.24679  -0.22909  -0.20331  -0.06974
 Alpha  occ. eigenvalues --   -0.06683  -0.04214  -0.03907   0.41756
 Alpha virt. eigenvalues --    0.63301   1.07287   1.11130   1.11984   1.13248
 Alpha virt. eigenvalues --    1.13513   1.14558   1.15905   1.19620   1.20931
 Alpha virt. eigenvalues --    1.26929   1.28185   1.36206   1.36610   1.56450

  Beta  occ. eigenvalues --  -20.16539 -20.16538 -20.12513 -20.12513  -0.92676
  Beta  occ. eigenvalues --   -0.92559  -0.53715  -0.52931  -0.14000  -0.12375
  Beta  occ. eigenvalues --   -0.07986  -0.07100  -0.00238   0.00014   0.25194
  Beta virt. eigenvalues --    0.39813   0.55647   0.56835   0.79214   0.85650
  Beta virt. eigenvalues --    1.14544   1.18376   1.19990   1.20028   1.21675
  Beta virt. eigenvalues --    1.22091   1.23968   1.27666   1.30691   1.35126

 Mulliken charges and spin densities:
               1          2
     1  O   -0.368509   1.091610
     2  O   -0.631491   0.908390
     3  O   -0.631491   0.908390
     4  O   -0.368509   1.091610
 Sum of Mulliken charges =  -2.00000   4.00000

 Dipole moment (field-independent basis, Debye):
    X=             -0.0000    Y=              0.0000    Z=             -0.0000  Tot=              0.0000
 Quadrupole moment (field-independent basis, Debye-Ang):
   XX=            -25.2069   YY=            -24.0362   ZZ=            -85.2426
   XY=             -0.0000   XZ=              0.0000   YZ=             -0.0000

 Normal termination of Gaussian 16 at Sat Jan  7 05:11:05 2023.
