 Gaussian 16, Revision A.03,
 Gaussian 16:  ES64L-G16RevA.03 25-Dec-2016

 ------------------------------------------------
 #p CCSD(T,MaxCyc=300)/cc-pVTZ Guess=Read SCF=XQC
 ------------------------------------------------

 --------
 O2_O2_51
 --------
 Symbolic Z-matrix:
 Charge = -2 Multiplicity = 5

                         Standard orientation:
 ---------------------------------------------------------------------
 Center     Atomic      Atomic             Coordinates (Angstroms)
 Number     Number       Type             X           Y           Z
 ---------------------------------------------------------------------
      1          8           0        0.000000    0.000000    1.153620
      2          8           0        0.000000    0.000000    2.506000
      3          8           0        0.000000    0.000000   -2.506000
      4          8           0        0.000000    0.000000   -1.153620
 ---------------------------------------------------------------------

 SCF Done:  E(UHF) =  -298.778389584     A.U. after   13 cycles
 E2 =    -0.1043027625D+01 EUMP2 =    -0.29982141720972D+03
 CCSD(T)
 CCSD(T)= -0.29986165765D+03

 Unable to determine electronic state:  an orbital has unidentified symmetry.
 Alpha  occ. eigenvalues --  -20.17785 -20.17782 -20.14677 -20.14677  -1.06180
 Alpha  occ. eigenvalues --   -1.05700  -0.70834  -0.68458  -0.24350  -0.23613
 Alpha  occ. eigenvalues --   -0.22651  -0.22260  -0.21317  -0.15623  -0.04576
 Alpha  occ. eigenvalues --   -0.03083  -0.01665  -0.00390   0.41963
 Alpha virt. eigenvalues --    0.68651   1.10249   1.13135   1.13482   1.14212
 Alpha virt. eigenvalues --    1.16761   1.18704   1.20127   1.22081   1.30567
 Alpha virt. eigenvalues --    1.35941   1.36680   1.38009   1.39063   1.82199

  Beta  occ. eigenvalues --  -20.12001 -20.11999 -20.09242 -20.09242  -0.89268
  Beta  occ. eigenvalues --   -0.88587  -0.52058  -0.48462  -0.12713  -0.06547
  Beta  occ. eigenvalues --   -0.05865  -0.04340   0.02004   0.03548   0.25585
  Beta virt. eigenvalues --    0.47803   0.57675   0.60806   0.84141   0.90057
  Beta virt. eigenvalues --    1.19556   1.20284   1.22296   1.23171   1.23850
  Beta virt. eigenvalues --    1.27745   1.28653   1.32659   1.34763   1.39799

 Mulliken charges and spin densities:
               1          2
     1  O   -0.369227   0.981547
     2  O   -0.630773   1.018453
     3  O   -0.630773   1.018453
     4  O   -0.369227   0.981547
 Sum of Mulliken charges =  -2.00000   4.00000

 Dipole moment (field-independent basis, Debye):
    X=             -0.0000    Y=              0.0000    Z=              0.0000  Tot=              0.0000
 Quadrupole moment (field-independent basis, Debye-Ang):
   XX=            -25.2864   YY=            -24.0241   ZZ=            -72.0368
   XY=             -0.0000   XZ=              0.0000   YZ=             -0.0000

 Normal termination of Gaussian 16 at Sat Jan  7 04:03:41 2023.
