 Gaussian 16, Revision A.03,
 Gaussian 16:  ES64L-G16RevA.03 25-Dec-2016

 ------------------------------------------------
 #p CCSD(T,MaxCyc=300)/cc-pVTZ Guess=Read SCF=XQC
 ------------------------------------------------

 --------
 O2_O2_77
 --------
 Symbolic Z-matrix:
 Charge = -2 Multiplicity = 5

                         Standard orientation:
 ---------------------------------------------------------------------
 Center     Atomic      Atomic             Coordinates (Angstroms)
 Number     Number       Type             X           Y           Z
 ---------------------------------------------------------------------
      1          8           0        0.000000    0.000000    1.337681
      2          8           0        0.000000    0.000000    2.690061
      3          8           0        0.000000    0.000000   -2.690061
      4          8           0        0.000000    0.000000   -1.337681
 ---------------------------------------------------------------------

 SCF Done:  E(UHF) =  -298.780875873     A.U. after   14 cycles
 E2 =    -0.1067751696D+01 EUMP2 =    -0.29984862756830D+03
 CCSD(T)
 CCSD(T)= -0.29987995009D+03

 Unable to determine electronic state:  an orbital has unidentified symmetry.
 Alpha  occ. eigenvalues --  -20.20204 -20.20202 -20.16415 -20.16415  -1.07523
 Alpha  occ. eigenvalues --   -1.07345  -0.71616  -0.70596  -0.25849  -0.25502
 Alpha  occ. eigenvalues --   -0.23619  -0.23212  -0.22534  -0.18484  -0.05875
 Alpha  occ. eigenvalues --   -0.05236  -0.02999  -0.02400   0.41914
 Alpha virt. eigenvalues --    0.65444   1.10620   1.12473   1.13458   1.13470
 Alpha virt. eigenvalues --    1.15589   1.16000   1.17222   1.19547   1.21185
 Alpha virt. eigenvalues --    1.31010   1.32017   1.37124   1.37746   1.70041

  Beta  occ. eigenvalues --  -20.14456 -20.14455 -20.11150 -20.11150  -0.91082
  Beta  occ. eigenvalues --   -0.90817  -0.52655  -0.51074  -0.13120  -0.10071
  Beta  occ. eigenvalues --   -0.06990  -0.05885   0.01013   0.01626   0.25597
  Beta virt. eigenvalues --    0.43217   0.56586   0.58469   0.81577   0.87608
  Beta virt. eigenvalues --    1.18690   1.18993   1.20890   1.22424   1.22647
  Beta virt. eigenvalues --    1.23286   1.25725   1.27739   1.31264   1.38797

 Mulliken charges and spin densities:
               1          2
     1  O   -0.376063   1.037618
     2  O   -0.623937   0.962382
     3  O   -0.623937   0.962382
     4  O   -0.376063   1.037618
 Sum of Mulliken charges =  -2.00000   4.00000

 Dipole moment (field-independent basis, Debye):
    X=             -0.0000    Y=              0.0000    Z=              0.0000  Tot=              0.0000
 Quadrupole moment (field-independent basis, Debye-Ang):
   XX=            -25.2389   YY=            -24.0340   ZZ=            -78.3599
   XY=             -0.0000   XZ=              0.0000   YZ=             -0.0000

 Normal termination of Gaussian 16 at Sat Jan  7 04:39:38 2023.
