 Gaussian 16, Revision A.03,
 Gaussian 16:  ES64L-G16RevA.03 25-Dec-2016

 ------------------------------------------------
 #p CCSD(T,MaxCyc=300)/cc-pVTZ Guess=Read SCF=XQC
 ------------------------------------------------

 ---------
 O2_O2_282
 ---------
 Symbolic Z-matrix:
 Charge = -2 Multiplicity = 5

                         Standard orientation:
 ---------------------------------------------------------------------
 Center     Atomic      Atomic             Coordinates (Angstroms)
 Number     Number       Type             X           Y           Z
 ---------------------------------------------------------------------
      1          8           0        0.000000    0.000000    2.788936
      2          8           0        0.000000    0.000000    4.141316
      3          8           0        0.000000    0.000000   -4.141316
      4          8           0        0.000000    0.000000   -2.788936
 ---------------------------------------------------------------------

 SCF Done:  E(UHF) =  -298.771352514     A.U. after    9 cycles
 E2 =    -0.1275883157D+01 EUMP2 =    -0.30004723567145D+03
 CCSD(T)
 CCSD(T)= -0.29995317326D+03

 Unable to determine electronic state:  an orbital has unidentified symmetry.
 Alpha  occ. eigenvalues --  -20.25252 -20.25251 -20.22420 -20.22420  -1.12969
 Alpha  occ. eigenvalues --   -1.12968  -0.76957  -0.76949  -0.31477  -0.31476
 Alpha  occ. eigenvalues --   -0.28820  -0.28820  -0.27119  -0.26906  -0.11015
 Alpha  occ. eigenvalues --   -0.11015  -0.08466  -0.08465   0.42490
 Alpha virt. eigenvalues --    0.50589   1.05745   1.05955   1.09328   1.09335
 Alpha virt. eigenvalues --    1.10686   1.10691   1.13812   1.14150   1.18001
 Alpha virt. eigenvalues --    1.18022   1.19194   1.19216   1.32248   1.32250

  Beta  occ. eigenvalues --  -20.19417 -20.19416 -20.17246 -20.17246  -0.96595
  Beta  occ. eigenvalues --   -0.96593  -0.57745  -0.57719  -0.17606  -0.17600
  Beta  occ. eigenvalues --   -0.11837  -0.11667  -0.04653  -0.04653   0.24056
  Beta virt. eigenvalues --    0.31719   0.51924   0.51926   0.76554   0.76662
  Beta virt. eigenvalues --    1.14467   1.14598   1.16888   1.16892   1.17521
  Beta virt. eigenvalues --    1.17614   1.18969   1.18970   1.26028   1.26034

 Mulliken charges and spin densities:
               1          2
     1  O   -0.409646   1.092531
     2  O   -0.590354   0.907469
     3  O   -0.590354   0.907469
     4  O   -0.409646   1.092531
 Sum of Mulliken charges =  -2.00000   4.00000

 Dipole moment (field-independent basis, Debye):
    X=             -0.0000    Y=              0.0000    Z=              0.0000  Tot=              0.0000
 Quadrupole moment (field-independent basis, Debye-Ang):
   XX=            -25.1294   YY=            -23.9650   ZZ=           -157.1296
   XY=             -0.0000   XZ=              0.0000   YZ=             -0.0000

 Normal termination of Gaussian 16 at Sat Jan  7 09:48:54 2023.
