 Gaussian 16, Revision A.03,
 Gaussian 16:  ES64L-G16RevA.03 25-Dec-2016

 ------------------------------------------------
 #p CCSD(T,MaxCyc=300)/cc-pVTZ Guess=Read SCF=XQC
 ------------------------------------------------

 ---------
 O2_O2_197
 ---------
 Symbolic Z-matrix:
 Charge = -2 Multiplicity = 5

                         Standard orientation:
 ---------------------------------------------------------------------
 Center     Atomic      Atomic             Coordinates (Angstroms)
 Number     Number       Type             X           Y           Z
 ---------------------------------------------------------------------
      1          8           0        0.000000    0.000000    2.187196
      2          8           0        0.000000    0.000000    3.539576
      3          8           0        0.000000    0.000000   -3.539576
      4          8           0        0.000000    0.000000   -2.187196
 ---------------------------------------------------------------------

 SCF Done:  E(UHF) =  -298.770007822     A.U. after   12 cycles
 E2 =    -0.1190782450D+01 EUMP2 =    -0.29996079027153D+03
 CCSD(T)
 CCSD(T)= -0.29993030610D+03

 Unable to determine electronic state:  an orbital has unidentified symmetry.
 Alpha  occ. eigenvalues --  -20.24287 -20.24286 -20.20704 -20.20704  -1.11515
 Alpha  occ. eigenvalues --   -1.11513  -0.75397  -0.75361  -0.30109  -0.30102
 Alpha  occ. eigenvalues --   -0.27421  -0.27414  -0.25491  -0.24987  -0.09500
 Alpha  occ. eigenvalues --   -0.09488  -0.06980  -0.06966   0.42809
 Alpha virt. eigenvalues --    0.54217   1.05271   1.09460   1.10742   1.10913
 Alpha virt. eigenvalues --    1.12102   1.12246   1.14151   1.18583   1.19400
 Alpha virt. eigenvalues --    1.19760   1.20587   1.20976   1.33708   1.33714

  Beta  occ. eigenvalues --  -20.18454 -20.18454 -20.15637 -20.15637  -0.95278
  Beta  occ. eigenvalues --   -0.95271  -0.56331  -0.56256  -0.16218  -0.16102
  Beta  occ. eigenvalues --   -0.10477  -0.10156  -0.03291  -0.03282   0.24596
  Beta virt. eigenvalues --    0.34044   0.53430   0.53494   0.77033   0.79504
  Beta virt. eigenvalues --    1.14135   1.16899   1.18296   1.18299   1.18432
  Beta virt. eigenvalues --    1.20351   1.20428   1.22241   1.27409   1.27740

 Mulliken charges and spin densities:
               1          2
     1  O   -0.387552   1.109672
     2  O   -0.612448   0.890328
     3  O   -0.612448   0.890328
     4  O   -0.387552   1.109672
 Sum of Mulliken charges =  -2.00000   4.00000

 Dipole moment (field-independent basis, Debye):
    X=             -0.0000    Y=              0.0000    Z=             -0.0000  Tot=              0.0000
 Quadrupole moment (field-independent basis, Debye-Ang):
   XX=            -25.1445   YY=            -23.9815   ZZ=           -120.5887
   XY=             -0.0000   XZ=              0.0000   YZ=             -0.0000

 Normal termination of Gaussian 16 at Sat Jan  7 07:35:59 2023.
