 Gaussian 16, Revision A.03,
 Gaussian 16:  ES64L-G16RevA.03 25-Dec-2016

 ------------------------------------------------
 #p CCSD(T,MaxCyc=300)/cc-pVTZ Guess=Read SCF=XQC
 ------------------------------------------------

 ---------
 O2_O2_153
 ---------
 Symbolic Z-matrix:
 Charge = -2 Multiplicity = 5

                         Standard orientation:
 ---------------------------------------------------------------------
 Center     Atomic      Atomic             Coordinates (Angstroms)
 Number     Number       Type             X           Y           Z
 ---------------------------------------------------------------------
      1          8           0        0.000000    0.000000    1.875707
      2          8           0        0.000000    0.000000    3.228087
      3          8           0        0.000000    0.000000   -3.228087
      4          8           0        0.000000    0.000000   -1.875707
 ---------------------------------------------------------------------

 SCF Done:  E(UHF) =  -298.777876725     A.U. after   16 cycles
 E2 =    -0.1132867348D+01 EUMP2 =    -0.29991074407365D+03
 CCSD(T)
 CCSD(T)= -0.29991459752D+03

 Unable to determine electronic state:  an orbital has unidentified symmetry.
 Alpha  occ. eigenvalues --  -20.24122 -20.24121 -20.19688 -20.19688  -1.10667
 Alpha  occ. eigenvalues --   -1.10655  -0.74420  -0.74309  -0.29387  -0.29351
 Alpha  occ. eigenvalues --   -0.26681  -0.26646  -0.24340  -0.23343  -0.08646
 Alpha  occ. eigenvalues --   -0.08593  -0.06141  -0.06077   0.42307
 Alpha virt. eigenvalues --    0.58047   1.02566   1.11155   1.11347   1.12143
 Alpha virt. eigenvalues --    1.12739   1.13415   1.13452   1.19809   1.20956
 Alpha virt. eigenvalues --    1.21516   1.22794   1.29327   1.34575   1.34650

  Beta  occ. eigenvalues --  -20.18387 -20.18387 -20.14714 -20.14714  -0.94710
  Beta  occ. eigenvalues --   -0.94689  -0.55603  -0.55413  -0.15596  -0.15194
  Beta  occ. eigenvalues --   -0.09786  -0.09290  -0.02553  -0.02512   0.24687
  Beta virt. eigenvalues --    0.35597   0.54237   0.54537   0.76461   0.82052
  Beta virt. eigenvalues --    1.11297   1.17752   1.18602   1.18935   1.19542
  Beta virt. eigenvalues --    1.21031   1.21404   1.27788   1.29482   1.30691

 Mulliken charges and spin densities:
               1          2
     1  O   -0.373780   1.123450
     2  O   -0.626220   0.876550
     3  O   -0.626220   0.876550
     4  O   -0.373780   1.123450
 Sum of Mulliken charges =  -2.00000   4.00000

 Dipole moment (field-independent basis, Debye):
    X=             -0.0000    Y=              0.0000    Z=              0.0000  Tot=              0.0000
 Quadrupole moment (field-independent basis, Debye-Ang):
   XX=            -25.1645   YY=            -24.0046   ZZ=           -103.5878
   XY=             -0.0000   XZ=              0.0000   YZ=             -0.0000

 Normal termination of Gaussian 16 at Sat Jan  7 06:28:45 2023.
