 Gaussian 16, Revision A.03,
 Gaussian 16:  ES64L-G16RevA.03 25-Dec-2016

 ------------------------------------------------
 #p CCSD(T,MaxCyc=300)/cc-pVTZ Guess=Read SCF=XQC
 ------------------------------------------------

 --------
 O2_O2_62
 --------
 Symbolic Z-matrix:
 Charge = -2 Multiplicity = 5

                         Standard orientation:
 ---------------------------------------------------------------------
 Center     Atomic      Atomic             Coordinates (Angstroms)
 Number     Number       Type             X           Y           Z
 ---------------------------------------------------------------------
      1          8           0        0.000000    0.000000    1.231492
      2          8           0        0.000000    0.000000    2.583872
      3          8           0        0.000000    0.000000   -2.583872
      4          8           0        0.000000    0.000000   -1.231492
 ---------------------------------------------------------------------

 SCF Done:  E(UHF) =  -298.779623986     A.U. after   14 cycles
 E2 =    -0.1054161816D+01 EUMP2 =    -0.29983378580184D+03
 CCSD(T)
 CCSD(T)= -0.29987030125D+03

 Unable to determine electronic state:  an orbital has unidentified symmetry.
 Alpha  occ. eigenvalues --  -20.18834 -20.18832 -20.15455 -20.15455  -1.06739
 Alpha  occ. eigenvalues --   -1.06425  -0.71095  -0.69441  -0.24969  -0.24435
 Alpha  occ. eigenvalues --   -0.22819  -0.22512  -0.22159  -0.16978  -0.05111
 Alpha  occ. eigenvalues --   -0.04067  -0.02217  -0.01291   0.41982
 Alpha virt. eigenvalues --    0.67116   1.10382   1.12933   1.13338   1.13754
 Alpha virt. eigenvalues --    1.16263   1.18076   1.19770   1.21605   1.23899
 Alpha virt. eigenvalues --    1.33862   1.34712   1.37661   1.38483   1.77525

  Beta  occ. eigenvalues --  -20.13061 -20.13059 -20.10092 -20.10092  -0.90022
  Beta  occ. eigenvalues --   -0.89568  -0.52189  -0.49654  -0.12786  -0.08200
  Beta  occ. eigenvalues --   -0.06337  -0.05019   0.01648   0.02697   0.25682
  Beta virt. eigenvalues --    0.45744   0.57220   0.59752   0.83086   0.88983
  Beta virt. eigenvalues --    1.19114   1.19941   1.21617   1.22741   1.23330
  Beta virt. eigenvalues --    1.26882   1.28103   1.29310   1.31953   1.39398

 Mulliken charges and spin densities:
               1          2
     1  O   -0.373552   1.005611
     2  O   -0.626448   0.994389
     3  O   -0.626448   0.994389
     4  O   -0.373552   1.005611
 Sum of Mulliken charges =  -2.00000   4.00000

 Dipole moment (field-independent basis, Debye):
    X=             -0.0000    Y=              0.0000    Z=              0.0000  Tot=              0.0000
 Quadrupole moment (field-independent basis, Debye-Ang):
   XX=            -25.2667   YY=            -24.0299   ZZ=            -74.5767
   XY=             -0.0000   XZ=              0.0000   YZ=             -0.0000

 Normal termination of Gaussian 16 at Sat Jan  7 04:18:55 2023.
