 Gaussian 16, Revision A.03,
 Gaussian 16:  ES64L-G16RevA.03 25-Dec-2016

 ------------------------------------------------
 #p CCSD(T,MaxCyc=300)/cc-pVTZ Guess=Read SCF=XQC
 ------------------------------------------------

 --------
 O2_O2_50
 --------
 Symbolic Z-matrix:
 Charge = -2 Multiplicity = 5

                         Standard orientation:
 ---------------------------------------------------------------------
 Center     Atomic      Atomic             Coordinates (Angstroms)
 Number     Number       Type             X           Y           Z
 ---------------------------------------------------------------------
      1          8           0        0.000000    0.000000    1.146540
      2          8           0        0.000000    0.000000    2.498920
      3          8           0        0.000000    0.000000   -2.498920
      4          8           0        0.000000    0.000000   -1.146540
 ---------------------------------------------------------------------

 SCF Done:  E(UHF) =  -298.778234274     A.U. after   13 cycles
 E2 =    -0.1041963679D+01 EUMP2 =    -0.29982019795246D+03
 CCSD(T)
 CCSD(T)= -0.29986077274D+03

 Unable to determine electronic state:  an orbital has unidentified symmetry.
 Alpha  occ. eigenvalues --  -20.17686 -20.17682 -20.14603 -20.14603  -1.06130
 Alpha  occ. eigenvalues --   -1.05631  -0.70818  -0.68361  -0.24295  -0.23536
 Alpha  occ. eigenvalues --   -0.22672  -0.22211  -0.21237  -0.15486  -0.04529
 Alpha  occ. eigenvalues --   -0.02986  -0.01616  -0.00303   0.41957
 Alpha virt. eigenvalues --    0.68809   1.10237   1.13112   1.13544   1.14268
 Alpha virt. eigenvalues --    1.16807   1.18761   1.20169   1.22132   1.31189
 Alpha virt. eigenvalues --    1.36128   1.36856   1.38039   1.39124   1.82593

  Beta  occ. eigenvalues --  -20.11902 -20.11900 -20.09161 -20.09161  -0.89201
  Beta  occ. eigenvalues --   -0.88494  -0.52058  -0.48346  -0.12714  -0.06380
  Beta  occ. eigenvalues --   -0.05822  -0.04276   0.02031   0.03629   0.25568
  Beta virt. eigenvalues --    0.48001   0.57716   0.60907   0.84235   0.90159
  Beta virt. eigenvalues --    1.19602   1.20308   1.22364   1.23222   1.23899
  Beta virt. eigenvalues --    1.27825   1.28719   1.32733   1.35272   1.39834

 Mulliken charges and spin densities:
               1          2
     1  O   -0.368757   0.979277
     2  O   -0.631243   1.020723
     3  O   -0.631243   1.020723
     4  O   -0.368757   0.979277
 Sum of Mulliken charges =  -2.00000   4.00000

 Dipole moment (field-independent basis, Debye):
    X=             -0.0000    Y=             -0.0000    Z=              0.0000  Tot=              0.0000
 Quadrupole moment (field-independent basis, Debye-Ang):
   XX=            -25.2879   YY=            -24.0233   ZZ=            -71.8142
   XY=             -0.0000   XZ=              0.0000   YZ=             -0.0000

 163\PMP3-0=-299.7835251\MP4SDQ=-299.7875921\CCSD=-299.7847409\CCSD(T)=
 Normal termination of Gaussian 16 at Sat Jan  7 04:02:17 2023.
