 Gaussian 16, Revision A.03,
 Gaussian 16:  ES64L-G16RevA.03 25-Dec-2016

 ------------------------------------------------
 #p CCSD(T,MaxCyc=300)/cc-pVTZ Guess=Read SCF=XQC
 ------------------------------------------------

 ---------
 O2_O2_246
 ---------
 Symbolic Z-matrix:
 Charge = -2 Multiplicity = 5

                         Standard orientation:
 ---------------------------------------------------------------------
 Center     Atomic      Atomic             Coordinates (Angstroms)
 Number     Number       Type             X           Y           Z
 ---------------------------------------------------------------------
      1          8           0        0.000000    0.000000    2.534081
      2          8           0        0.000000    0.000000    3.886461
      3          8           0        0.000000    0.000000   -3.886461
      4          8           0        0.000000    0.000000   -2.534081
 ---------------------------------------------------------------------

 SCF Done:  E(UHF) =  -298.769301511     A.U. after    9 cycles
 E2 =    -0.1244059987D+01 EUMP2 =    -0.30001336149784D+03
 CCSD(T)
 CCSD(T)= -0.29994469149D+03

 Unable to determine electronic state:  an orbital has unidentified symmetry.
 Alpha  occ. eigenvalues --  -20.24788 -20.24788 -20.21714 -20.21714  -1.12378
 Alpha  occ. eigenvalues --   -1.12378  -0.76336  -0.76323  -0.30907  -0.30906
 Alpha  occ. eigenvalues --   -0.28239  -0.28237  -0.26505  -0.26217  -0.10393
 Alpha  occ. eigenvalues --   -0.10391  -0.07856  -0.07854   0.42723
 Alpha virt. eigenvalues --    0.51744   1.06103   1.07001   1.09914   1.09938
 Alpha virt. eigenvalues --    1.11270   1.11290   1.14268   1.15115   1.18597
 Alpha virt. eigenvalues --    1.18653   1.19790   1.19851   1.32831   1.32836

  Beta  occ. eigenvalues --  -20.18934 -20.18934 -20.16576 -20.16576  -0.96019
  Beta  occ. eigenvalues --   -0.96017  -0.57150  -0.57114  -0.17008  -0.16986
  Beta  occ. eigenvalues --   -0.11263  -0.11045  -0.04088  -0.04087   0.24321
  Beta virt. eigenvalues --    0.32635   0.52543   0.52551   0.77025   0.77526
  Beta virt. eigenvalues --    1.14868   1.15450   1.17476   1.17492   1.18030
  Beta virt. eigenvalues --    1.18568   1.19541   1.19550   1.26620   1.26656

 Mulliken charges and spin densities:
               1          2
     1  O   -0.400979   1.099262
     2  O   -0.599021   0.900738
     3  O   -0.599021   0.900738
     4  O   -0.400979   1.099262
 Sum of Mulliken charges =  -2.00000   4.00000

 Dipole moment (field-independent basis, Debye):
    X=             -0.0000    Y=              0.0000    Z=              0.0000  Tot=              0.0000
 Quadrupole moment (field-independent basis, Debye-Ang):
   XX=            -25.1333   YY=            -23.9684   ZZ=           -140.9243
   XY=             -0.0000   XZ=              0.0000   YZ=             -0.0000

 Normal termination of Gaussian 16 at Sat Jan  7 08:51:24 2023.
