 Gaussian 16, Revision A.03,
 Gaussian 16:  ES64L-G16RevA.03 25-Dec-2016

 ------------------------------------------------
 #p CCSD(T,MaxCyc=300)/cc-pVTZ Guess=Read SCF=XQC
 ------------------------------------------------

 ---------
 O2_O2_186
 ---------
 Symbolic Z-matrix:
 Charge = -2 Multiplicity = 5

                         Standard orientation:
 ---------------------------------------------------------------------
 Center     Atomic      Atomic             Coordinates (Angstroms)
 Number     Number       Type             X           Y           Z
 ---------------------------------------------------------------------
      1          8           0        0.000000    0.000000    2.109323
      2          8           0        0.000000    0.000000    3.461704
      3          8           0        0.000000    0.000000   -3.461704
      4          8           0        0.000000    0.000000   -2.109323
 ---------------------------------------------------------------------

 SCF Done:  E(UHF) =  -298.771306831     A.U. after   16 cycles
 E2 =    -0.1176710416D+01 EUMP2 =    -0.29994801724618D+03
 CCSD(T)
 CCSD(T)= -0.29992659272D+03

 Unable to determine electronic state:  an orbital has unidentified symmetry.
 Alpha  occ. eigenvalues --  -20.24228 -20.24227 -20.20475 -20.20475  -1.11318
 Alpha  occ. eigenvalues --   -1.11314  -0.75173  -0.75126  -0.29938  -0.29927
 Alpha  occ. eigenvalues --   -0.27245  -0.27234  -0.25227  -0.24638  -0.09300
 Alpha  occ. eigenvalues --   -0.09283  -0.06784  -0.06763   0.42746
 Alpha virt. eigenvalues --    0.55011   1.04685   1.10033   1.10913   1.11172
 Alpha virt. eigenvalues --    1.12277   1.12495   1.13968   1.19546   1.20090
 Alpha virt. eigenvalues --    1.20311   1.20727   1.21315   1.33910   1.33927

  Beta  occ. eigenvalues --  -20.18415 -20.18414 -20.15430 -20.15430  -0.95138
  Beta  occ. eigenvalues --   -0.95130  -0.56159  -0.56066  -0.16063  -0.15902
  Beta  occ. eigenvalues --   -0.10313  -0.09959  -0.03120  -0.03106   0.24628
  Beta virt. eigenvalues --    0.34388   0.53626   0.53723   0.76876   0.80100
  Beta virt. eigenvalues --    1.13532   1.17164   1.18329   1.18469   1.18671
  Beta virt. eigenvalues --    1.20524   1.20643   1.23991   1.27548   1.28063

 Mulliken charges and spin densities:
               1          2
     1  O   -0.384324   1.112579
     2  O   -0.615676   0.887421
     3  O   -0.615676   0.887421
     4  O   -0.384324   1.112579
 Sum of Mulliken charges =  -2.00000   4.00000

 Dipole moment (field-independent basis, Debye):
    X=             -0.0000    Y=              0.0000    Z=              0.0000  Tot=              0.0000
 Quadrupole moment (field-independent basis, Debye-Ang):
   XX=            -25.1486   YY=            -23.9865   ZZ=           -116.2385
   XY=             -0.0000   XZ=              0.0000   YZ=             -0.0000

 Normal termination of Gaussian 16 at Sat Jan  7 07:18:51 2023.
