 Gaussian 16, Revision A.03,
 Gaussian 16:  ES64L-G16RevA.03 25-Dec-2016

 ------------------------------------------------
 #p CCSD(T,MaxCyc=300)/cc-pVTZ Guess=Read SCF=XQC
 ------------------------------------------------

 --------
 O2_O2_37
 --------
 Symbolic Z-matrix:
 Charge = -2 Multiplicity = 5

                         Standard orientation:
 ---------------------------------------------------------------------
 Center     Atomic      Atomic             Coordinates (Angstroms)
 Number     Number       Type             X           Y           Z
 ---------------------------------------------------------------------
      1          8           0        0.000000    0.000000    1.054510
      2          8           0        0.000000    0.000000    2.406890
      3          8           0        0.000000    0.000000   -2.406890
      4          8           0        0.000000    0.000000   -1.054510
 ---------------------------------------------------------------------

 SCF Done:  E(UHF) =  -298.774785223     A.U. after   13 cycles
 E2 =    -0.1027336935D+01 EUMP2 =    -0.29980212215775D+03
 CCSD(T)
 CCSD(T)= -0.29984697317D+03

 Unable to determine electronic state:  an orbital has unidentified symmetry.
 Alpha  occ. eigenvalues --  -20.16308 -20.16303 -20.13562 -20.13562  -1.05493
 Alpha  occ. eigenvalues --   -1.04665  -0.70749  -0.66943  -0.23586  -0.23080
 Alpha  occ. eigenvalues --   -0.22473  -0.21591  -0.20097  -0.13440  -0.03948
 Alpha  occ. eigenvalues --   -0.01590  -0.00990   0.00934   0.41788
 Alpha virt. eigenvalues --    0.71233   1.10090   1.12789   1.14542   1.15219
 Alpha virt. eigenvalues --    1.17411   1.19525   1.20916   1.22951   1.38022
 Alpha virt. eigenvalues --    1.38379   1.38502   1.39101   1.41154   1.87305

  Beta  occ. eigenvalues --  -20.10542 -20.10539 -20.08023 -20.08023  -0.88361
  Beta  occ. eigenvalues --   -0.87203  -0.52295  -0.46670  -0.12846  -0.05268
  Beta  occ. eigenvalues --   -0.03898  -0.03391   0.02255   0.04779   0.25211
  Beta virt. eigenvalues --    0.50757   0.58264   0.62328   0.85456   0.91554
  Beta virt. eigenvalues --    1.20308   1.20552   1.23335   1.24075   1.24556
  Beta virt. eigenvalues --    1.28900   1.29865   1.33858   1.40254   1.40464

 Mulliken charges and spin densities:
               1          2
     1  O   -0.361878   0.947751
     2  O   -0.638122   1.052249
     3  O   -0.638122   1.052249
     4  O   -0.361878   0.947751
 Sum of Mulliken charges =  -2.00000   4.00000

 Dipole moment (field-independent basis, Debye):
    X=             -0.0000    Y=              0.0000    Z=              0.0000  Tot=              0.0000
 Quadrupole moment (field-independent basis, Debye-Ang):
   XX=            -25.3001   YY=            -24.0047   ZZ=            -69.0406
   XY=             -0.0000   XZ=              0.0000   YZ=             -0.0000

 Normal termination of Gaussian 16 at Sat Jan  7 03:44:15 2023.
