 Gaussian 16, Revision A.03,
 Gaussian 16:  ES64L-G16RevA.03 25-Dec-2016

 ------------------------------------------------
 #p CCSD(T,MaxCyc=300)/cc-pVTZ Guess=Read SCF=XQC
 ------------------------------------------------

 ---------
 O2_O2_209
 ---------
 Symbolic Z-matrix:
 Charge = -2 Multiplicity = 5

                         Standard orientation:
 ---------------------------------------------------------------------
 Center     Atomic      Atomic             Coordinates (Angstroms)
 Number     Number       Type             X           Y           Z
 ---------------------------------------------------------------------
      1          8           0        0.000000    0.000000    2.272148
      2          8           0        0.000000    0.000000    3.624528
      3          8           0        0.000000    0.000000   -3.624528
      4          8           0        0.000000    0.000000   -2.272148
 ---------------------------------------------------------------------

 SCF Done:  E(UHF) =  -298.769162669     A.U. after   12 cycles
 E2 =    -0.1205256847D+01 EUMP2 =    -0.29997441951603D+03
 CCSD(T)
 CCSD(T)= -0.29993416144D+03

 Unable to determine electronic state:  an orbital has unidentified symmetry.
 Alpha  occ. eigenvalues --  -20.24378 -20.24378 -20.20952 -20.20952  -1.11729
 Alpha  occ. eigenvalues --   -1.11727  -0.75635  -0.75608  -0.30300  -0.30295
 Alpha  occ. eigenvalues --   -0.27618  -0.27613  -0.25762  -0.25332  -0.09718
 Alpha  occ. eigenvalues --   -0.09711  -0.07194  -0.07185   0.42835
 Alpha virt. eigenvalues --    0.53467   1.05721   1.08786   1.10545   1.10652
 Alpha virt. eigenvalues --    1.11903   1.11992   1.14297   1.17242   1.19220
 Alpha virt. eigenvalues --    1.19446   1.20409   1.20654   1.33489   1.33490

  Beta  occ. eigenvalues --  -20.18532 -20.18532 -20.15864 -20.15864  -0.95443
  Beta  occ. eigenvalues --   -0.95438  -0.56525  -0.56464  -0.16398  -0.16319
  Beta  occ. eigenvalues --   -0.10662  -0.10373  -0.03483  -0.03477   0.24547
  Beta virt. eigenvalues --    0.33683   0.53214   0.53254   0.77139   0.78913
  Beta virt. eigenvalues --    1.14580   1.16567   1.18104   1.18186   1.18270
  Beta virt. eigenvalues --    1.20157   1.20204   1.20830   1.27233   1.27433

 Mulliken charges and spin densities:
               1          2
     1  O   -0.390976   1.106864
     2  O   -0.609024   0.893136
     3  O   -0.609024   0.893136
     4  O   -0.390976   1.106864
 Sum of Mulliken charges =  -2.00000   4.00000

 Dipole moment (field-independent basis, Debye):
    X=             -0.0000    Y=              0.0000    Z=             -0.0000  Tot=              0.0000
 Quadrupole moment (field-independent basis, Debye-Ang):
   XX=            -25.1408   YY=            -23.9770   ZZ=           -125.4132
   XY=             -0.0000   XZ=              0.0000   YZ=             -0.0000

 Normal termination of Gaussian 16 at Sat Jan  7 07:54:14 2023.
