 Gaussian 16, Revision A.03,
 Gaussian 16:  ES64L-G16RevA.03 25-Dec-2016

 ------------------------------------------------
 #p CCSD(T,MaxCyc=300)/cc-pVTZ Guess=Read SCF=XQC
 ------------------------------------------------

 --------
 O2_O2_69
 --------
 Symbolic Z-matrix:
 Charge = -2 Multiplicity = 5

                         Standard orientation:
 ---------------------------------------------------------------------
 Center     Atomic      Atomic             Coordinates (Angstroms)
 Number     Number       Type             X           Y           Z
 ---------------------------------------------------------------------
      1          8           0        0.000000    0.000000    1.281047
      2          8           0        0.000000    0.000000    2.633427
      3          8           0        0.000000    0.000000   -2.633427
      4          8           0        0.000000    0.000000   -1.281047
 ---------------------------------------------------------------------

 SCF Done:  E(UHF) =  -298.780208297     A.U. after   14 cycles
 E2 =    -0.1060717729D+01 EUMP2 =    -0.29984092602557D+03
 CCSD(T)
 CCSD(T)= -0.29987503228D+03

 Unable to determine electronic state:  an orbital has unidentified symmetry.
 Alpha  occ. eigenvalues --  -20.19477 -20.19474 -20.15917 -20.15917  -1.07101
 Alpha  occ. eigenvalues --   -1.06861  -0.71319  -0.70002  -0.25374  -0.24938
 Alpha  occ. eigenvalues --   -0.23187  -0.22661  -0.22495  -0.17721  -0.05465
 Alpha  occ. eigenvalues --   -0.04633  -0.02578  -0.01822   0.41960
 Alpha virt. eigenvalues --    0.66289   1.10483   1.12688   1.13420   1.13581
 Alpha virt. eigenvalues --    1.15948   1.17678   1.19633   1.20006   1.21379
 Alpha virt. eigenvalues --    1.32527   1.33449   1.37418   1.38139   1.74200

  Beta  occ. eigenvalues --  -20.13715 -20.13713 -20.10599 -20.10599  -0.90514
  Beta  occ. eigenvalues --   -0.90161  -0.52373  -0.50342  -0.12911  -0.09118
  Beta  occ. eigenvalues --   -0.06640  -0.05430   0.01370   0.02188   0.25670
  Beta virt. eigenvalues --    0.44530   0.56927   0.59133   0.82393   0.88331
  Beta virt. eigenvalues --    1.18892   1.19609   1.21253   1.22565   1.23008
  Beta virt. eigenvalues --    1.26216   1.26341   1.27888   1.31596   1.39125

 Mulliken charges and spin densities:
               1          2
     1  O   -0.375302   1.020473
     2  O   -0.624698   0.979527
     3  O   -0.624698   0.979527
     4  O   -0.375302   1.020473
 Sum of Mulliken charges =  -2.00000   4.00000

 Dipole moment (field-independent basis, Debye):
    X=             -0.0000    Y=              0.0000    Z=             -0.0000  Tot=              0.0000
 Quadrupole moment (field-independent basis, Debye-Ang):
   XX=            -25.2534   YY=            -24.0320   ZZ=            -76.2894
   XY=             -0.0000   XZ=              0.0000   YZ=             -0.0000

 Normal termination of Gaussian 16 at Sat Jan  7 04:28:37 2023.
