 Gaussian 16, Revision A.03,
 Gaussian 16:  ES64L-G16RevA.03 25-Dec-2016

 ------------------------------------------------
 #p CCSD(T,MaxCyc=300)/cc-pVTZ Guess=Read SCF=XQC
 ------------------------------------------------

 ---------
 O2_O2_205
 ---------
 Symbolic Z-matrix:
 Charge = -2 Multiplicity = 5

                         Standard orientation:
 ---------------------------------------------------------------------
 Center     Atomic      Atomic             Coordinates (Angstroms)
 Number     Number       Type             X           Y           Z
 ---------------------------------------------------------------------
      1          8           0        0.000000    0.000000    2.243830
      2          8           0        0.000000    0.000000    3.596210
      3          8           0        0.000000    0.000000   -3.596210
      4          8           0        0.000000    0.000000   -2.243830
 ---------------------------------------------------------------------

 SCF Done:  E(UHF) =  -298.769382404     A.U. after   12 cycles
 E2 =    -0.1200540118D+01 EUMP2 =    -0.29996992252177D+03
 CCSD(T)
 CCSD(T)= -0.29993290016D+03

 Unable to determine electronic state:  an orbital has unidentified symmetry.
 Alpha  occ. eigenvalues --  -20.24345 -20.24344 -20.20869 -20.20869  -1.11658
 Alpha  occ. eigenvalues --   -1.11656  -0.75556  -0.75527  -0.30236  -0.30230
 Alpha  occ. eigenvalues --   -0.27552  -0.27546  -0.25674  -0.25221  -0.09645
 Alpha  occ. eigenvalues --   -0.09637  -0.07123  -0.07112   0.42831
 Alpha virt. eigenvalues --    0.53704   1.05593   1.09012   1.10612   1.10737
 Alpha virt. eigenvalues --    1.11970   1.12075   1.14256   1.17636   1.19282
 Alpha virt. eigenvalues --    1.19546   1.20471   1.20757   1.33563   1.33564

  Beta  occ. eigenvalues --  -20.18502 -20.18502 -20.15788 -20.15788  -0.95387
  Beta  occ. eigenvalues --   -0.95381  -0.56459  -0.56394  -0.16336  -0.16247
  Beta  occ. eigenvalues --   -0.10600  -0.10300  -0.03418  -0.03412   0.24565
  Beta virt. eigenvalues --    0.33802   0.53287   0.53333   0.77112   0.79102
  Beta virt. eigenvalues --    1.14456   1.16682   1.18170   1.18266   1.18279
  Beta virt. eigenvalues --    1.20222   1.20278   1.21249   1.27294   1.27531

 Mulliken charges and spin densities:
               1          2
     1  O   -0.389842   1.107771
     2  O   -0.610158   0.892229
     3  O   -0.610158   0.892229
     4  O   -0.389842   1.107771
 Sum of Mulliken charges =  -2.00000   4.00000

 Dipole moment (field-independent basis, Debye):
    X=             -0.0000    Y=              0.0000    Z=             -0.0000  Tot=              0.0000
 Quadrupole moment (field-independent basis, Debye-Ang):
   XX=            -25.1419   YY=            -23.9784   ZZ=           -123.7954
   XY=             -0.0000   XZ=              0.0000   YZ=             -0.0000

 Normal termination of Gaussian 16 at Sat Jan  7 07:48:19 2023.
