 Gaussian 16, Revision A.03,
 Gaussian 16:  ES64L-G16RevA.03 25-Dec-2016

 ------------------------------------------------
 #p CCSD(T,MaxCyc=300)/cc-pVTZ Guess=Read SCF=XQC
 ------------------------------------------------

 --------
 O2_O2_13
 --------
 Symbolic Z-matrix:
 Charge = -2 Multiplicity = 5

                         Standard orientation:
 ---------------------------------------------------------------------
 Center     Atomic      Atomic             Coordinates (Angstroms)
 Number     Number       Type             X           Y           Z
 ---------------------------------------------------------------------
      1          8           0        0.000000    0.000000    0.884606
      2          8           0        0.000000    0.000000    2.236987
      3          8           0        0.000000    0.000000   -2.236987
      4          8           0        0.000000    0.000000   -0.884606
 ---------------------------------------------------------------------

 SCF Done:  E(UHF) =  -298.750215051     A.U. after   14 cycles
 E2 =    -0.9963003897D+00 EUMP2 =    -0.29974651544074D+03
 CCSD(T)
 CCSD(T)= -0.29979896973D+03

 Unable to determine electronic state:  an orbital has unidentified symmetry.
 Alpha  occ. eigenvalues --  -20.13207 -20.13196 -20.11029 -20.11029  -1.04578
 Alpha  occ. eigenvalues --   -1.02387  -0.71945  -0.63256  -0.24729  -0.22431
 Alpha  occ. eigenvalues --   -0.20774  -0.20112  -0.17383  -0.07845  -0.03189
 Alpha  occ. eigenvalues --    0.00055   0.02009   0.04009   0.40656
 Alpha virt. eigenvalues --    0.78660   1.10031   1.12211   1.16846   1.17756
 Alpha virt. eigenvalues --    1.18667   1.21116   1.23713   1.25517   1.38621
 Alpha virt. eigenvalues --    1.39364   1.42516   1.42881   1.52270   1.93633

  Beta  occ. eigenvalues --  -20.07615 -20.07609 -20.05254 -20.05254  -0.87349
  Beta  occ. eigenvalues --   -0.84234  -0.54574  -0.42514  -0.13565  -0.04307
  Beta  occ. eigenvalues --   -0.01351   0.01574   0.03197   0.07550   0.23613
  Beta virt. eigenvalues --    0.56923   0.59429   0.65587   0.87632   0.94773
  Beta virt. eigenvalues --    1.20703   1.22598   1.25190   1.26015   1.26309
  Beta virt. eigenvalues --    1.31218   1.33411   1.36829   1.40799   1.41486

 Mulliken charges and spin densities:
               1          2
     1  O   -0.344668   0.875853
     2  O   -0.655332   1.124147
     3  O   -0.655332   1.124147
     4  O   -0.344668   0.875853
 Sum of Mulliken charges =  -2.00000   4.00000

 Dipole moment (field-independent basis, Debye):
    X=             -0.0000    Y=              0.0000    Z=             -0.0000  Tot=              0.0000
 Quadrupole moment (field-independent basis, Debye-Ang):
   XX=            -25.2477   YY=            -23.8965   ZZ=            -64.6835
   XY=             -0.0000   XZ=              0.0000   YZ=             -0.0000

 Normal termination of Gaussian 16 at Sat Jan  7 03:11:50 2023.
