 Gaussian 16, Revision A.03,
 Gaussian 16:  ES64L-G16RevA.03 25-Dec-2016

 ------------------------------------------------
 #p CCSD(T,MaxCyc=300)/cc-pVTZ Guess=Read SCF=XQC
 ------------------------------------------------

 ---------
 O2_O2_236
 ---------
 Symbolic Z-matrix:
 Charge = -2 Multiplicity = 5

                         Standard orientation:
 ---------------------------------------------------------------------
 Center     Atomic      Atomic             Coordinates (Angstroms)
 Number     Number       Type             X           Y           Z
 ---------------------------------------------------------------------
      1          8           0        0.000000    0.000000    2.463288
      2          8           0        0.000000    0.000000    3.815668
      3          8           0        0.000000    0.000000   -3.815668
      4          8           0        0.000000    0.000000   -2.463288
 ---------------------------------------------------------------------

 SCF Done:  E(UHF) =  -298.768965080     A.U. after   10 cycles
 E2 =    -0.1234348104D+01 EUMP2 =    -0.30000331318350D+03
 CCSD(T)
 CCSD(T)= -0.29994204216D+03

 Unable to determine electronic state:  an orbital has unidentified symmetry.
 Alpha  occ. eigenvalues --  -20.24665 -20.24664 -20.21509 -20.21509  -1.12205
 Alpha  occ. eigenvalues --   -1.12205  -0.76152  -0.76136  -0.30743  -0.30741
 Alpha  occ. eigenvalues --   -0.28071  -0.28069  -0.26316  -0.25999  -0.10212
 Alpha  occ. eigenvalues --   -0.10209  -0.07679  -0.07676   0.42773
 Alpha virt. eigenvalues --    0.52140   1.06113   1.07407   1.10084   1.10120
 Alpha virt. eigenvalues --    1.11441   1.11470   1.14340   1.15508   1.18769
 Alpha virt. eigenvalues --    1.18849   1.19962   1.20048   1.33003   1.33008

  Beta  occ. eigenvalues --  -20.18809 -20.18809 -20.16383 -20.16383  -0.95858
  Beta  occ. eigenvalues --   -0.95855  -0.56980  -0.56939  -0.16838  -0.16808
  Beta  occ. eigenvalues --   -0.11099  -0.10865  -0.03925  -0.03923   0.24390
  Beta virt. eigenvalues --    0.32909   0.52723   0.52736   0.77111   0.77839
  Beta virt. eigenvalues --    1.14902   1.15740   1.17646   1.17672   1.18131
  Beta virt. eigenvalues --    1.18975   1.19707   1.19721   1.26790   1.26848

 Mulliken charges and spin densities:
               1          2
     1  O   -0.398367   1.101234
     2  O   -0.601633   0.898766
     3  O   -0.601633   0.898766
     4  O   -0.398367   1.101234
 Sum of Mulliken charges =  -2.00000   4.00000

 Dipole moment (field-independent basis, Debye):
    X=             -0.0000    Y=             -0.0000    Z=             -0.0000  Tot=              0.0000
 Quadrupole moment (field-independent basis, Debye-Ang):
   XX=            -25.1348   YY=            -23.9701   ZZ=           -136.6267
   XY=             -0.0000   XZ=              0.0000   YZ=             -0.0000

 Normal termination of Gaussian 16 at Sat Jan  7 08:35:12 2023.
