 Gaussian 16, Revision A.03,
 Gaussian 16:  ES64L-G16RevA.03 25-Dec-2016

 ------------------------------------------------
 #p CCSD(T,MaxCyc=300)/cc-pVTZ Guess=Read SCF=XQC
 ------------------------------------------------

 ---------
 O2_O2_249
 ---------
 Symbolic Z-matrix:
 Charge = -2 Multiplicity = 5

                         Standard orientation:
 ---------------------------------------------------------------------
 Center     Atomic      Atomic             Coordinates (Angstroms)
 Number     Number       Type             X           Y           Z
 ---------------------------------------------------------------------
      1          8           0        0.000000    0.000000    2.555319
      2          8           0        0.000000    0.000000    3.907699
      3          8           0        0.000000    0.000000   -3.907699
      4          8           0        0.000000    0.000000   -2.555319
 ---------------------------------------------------------------------

 SCF Done:  E(UHF) =  -298.769430919     A.U. after    9 cycles
 E2 =    -0.1246881839D+01 EUMP2 =    -0.30001631275827D+03
 CCSD(T)
 CCSD(T)= -0.29994545826D+03

 Unable to determine electronic state:  an orbital has unidentified symmetry.
 Alpha  occ. eigenvalues --  -20.24826 -20.24826 -20.21775 -20.21774  -1.12430
 Alpha  occ. eigenvalues --   -1.12429  -0.76391  -0.76378  -0.30956  -0.30955
 Alpha  occ. eigenvalues --   -0.28289  -0.28288  -0.26559  -0.26280  -0.10446
 Alpha  occ. eigenvalues --   -0.10445  -0.07909  -0.07907   0.42706
 Alpha virt. eigenvalues --    0.51633   1.06090   1.06891   1.09863   1.09884
 Alpha virt. eigenvalues --    1.11220   1.11237   1.14240   1.15012   1.18546
 Alpha virt. eigenvalues --    1.18597   1.19739   1.19793   1.32780   1.32784

  Beta  occ. eigenvalues --  -20.18973 -20.18973 -20.16634 -20.16633  -0.96068
  Beta  occ. eigenvalues --   -0.96065  -0.57201  -0.57166  -0.17059  -0.17040
  Beta  occ. eigenvalues --   -0.11312  -0.11099  -0.04137  -0.04136   0.24299
  Beta virt. eigenvalues --    0.32555   0.52490   0.52497   0.76994   0.77440
  Beta virt. eigenvalues --    1.14848   1.15367   1.17425   1.17440   1.17995
  Beta virt. eigenvalues --    1.18464   1.19491   1.19499   1.26569   1.26600

 Mulliken charges and spin densities:
               1          2
     1  O   -0.401741   1.098686
     2  O   -0.598259   0.901314
     3  O   -0.598259   0.901314
     4  O   -0.401741   1.098686
 Sum of Mulliken charges =  -2.00000   4.00000

 Dipole moment (field-independent basis, Debye):
    X=             -0.0000    Y=              0.0000    Z=              0.0000  Tot=              0.0000
 Quadrupole moment (field-independent basis, Debye-Ang):
   XX=            -25.1329   YY=            -23.9680   ZZ=           -142.2306
   XY=             -0.0000   XZ=              0.0000   YZ=             -0.0000

 Normal termination of Gaussian 16 at Sat Jan  7 08:56:18 2023.
