 Gaussian 16, Revision A.03,
 Gaussian 16:  ES64L-G16RevA.03 25-Dec-2016

 ------------------------------------------------
 #p CCSD(T,MaxCyc=300)/cc-pVTZ Guess=Read SCF=XQC
 ------------------------------------------------

 ---------
 O2_O2_108
 ---------
 Symbolic Z-matrix:
 Charge = -2 Multiplicity = 5

                         Standard orientation:
 ---------------------------------------------------------------------
 Center     Atomic      Atomic             Coordinates (Angstroms)
 Number     Number       Type             X           Y           Z
 ---------------------------------------------------------------------
      1          8           0        0.000000    0.000000    1.557139
      2          8           0        0.000000    0.000000    2.909519
      3          8           0        0.000000    0.000000   -2.909519
      4          8           0        0.000000    0.000000   -1.557139
 ---------------------------------------------------------------------

 SCF Done:  E(UHF) =  -298.783279035     A.U. after   16 cycles
 E2 =    -0.1091086574D+01 EUMP2 =    -0.29987436560878D+03
 CCSD(T)
 CCSD(T)= -0.29989598793D+03

 Unable to determine electronic state:  an orbital has unidentified symmetry.
 Alpha  occ. eigenvalues --  -20.22867 -20.22866 -20.17945 -20.17944  -1.09143
 Alpha  occ. eigenvalues --   -1.09084  -0.72922  -0.72528  -0.27773  -0.27626
 Alpha  occ. eigenvalues --   -0.25267  -0.25115  -0.23095  -0.20877  -0.07284
 Alpha  occ. eigenvalues --   -0.07063  -0.04604  -0.04360   0.41744
 Alpha virt. eigenvalues --    0.62584   1.05292   1.11289   1.11841   1.13184
 Alpha virt. eigenvalues --    1.13501   1.14178   1.15454   1.19696   1.20914
 Alpha virt. eigenvalues --    1.25727   1.27039   1.35886   1.36231   1.51591

  Beta  occ. eigenvalues --  -20.17140 -20.17139 -20.12915 -20.12915  -0.93162
  Beta  occ. eigenvalues --   -0.93074  -0.54103  -0.53483  -0.14331  -0.13024
  Beta  occ. eigenvalues --   -0.08334  -0.07512  -0.00736  -0.00553   0.25064
  Beta virt. eigenvalues --    0.38824   0.55380   0.56384   0.78470   0.85023
  Beta virt. eigenvalues --    1.13058   1.18313   1.19670   1.19782   1.21342
  Beta virt. eigenvalues --    1.21937   1.23406   1.27702   1.30617   1.33866

 Mulliken charges and spin densities:
               1          2
     1  O   -0.364911   1.108146
     2  O   -0.635089   0.891854
     3  O   -0.635089   0.891854
     4  O   -0.364911   1.108146
 Sum of Mulliken charges =  -2.00000   4.00000

 Dipole moment (field-independent basis, Debye):
    X=             -0.0000    Y=             -0.0000    Z=              0.0000  Tot=              0.0000
 Quadrupole moment (field-independent basis, Debye-Ang):
   XX=            -25.1984   YY=            -24.0324   ZZ=            -87.9030
   XY=             -0.0000   XZ=              0.0000   YZ=             -0.0000

 Normal termination of Gaussian 16 at Sat Jan  7 05:22:02 2023.
