 Gaussian 16, Revision A.03,
 Gaussian 16:  ES64L-G16RevA.03 25-Dec-2016

 ------------------------------------------------
 #p CCSD(T,MaxCyc=300)/cc-pVTZ Guess=Read SCF=XQC
 ------------------------------------------------

 ---------
 O2_O2_272
 ---------
 Symbolic Z-matrix:
 Charge = -2 Multiplicity = 5

                         Standard orientation:
 ---------------------------------------------------------------------
 Center     Atomic      Atomic             Coordinates (Angstroms)
 Number     Number       Type             X           Y           Z
 ---------------------------------------------------------------------
      1          8           0        0.000000    0.000000    2.718142
      2          8           0        0.000000    0.000000    4.070523
      3          8           0        0.000000    0.000000   -4.070523
      4          8           0        0.000000    0.000000   -2.718142
 ---------------------------------------------------------------------

 SCF Done:  E(UHF) =  -298.770706224     A.U. after    9 cycles
 E2 =    -0.1267414833D+01 EUMP2 =    -0.30003812105731D+03
 CCSD(T)
 CCSD(T)= -0.29995096464D+03

 Unable to determine electronic state:  an orbital has unidentified symmetry.
 Alpha  occ. eigenvalues --  -20.25123 -20.25123 -20.22230 -20.22230  -1.12811
 Alpha  occ. eigenvalues --   -1.12810  -0.76792  -0.76783  -0.31323  -0.31323
 Alpha  occ. eigenvalues --   -0.28664  -0.28663  -0.26958  -0.26727  -0.10848
 Alpha  occ. eigenvalues --   -0.10847  -0.08302  -0.08302   0.42558
 Alpha virt. eigenvalues --    0.50877   1.05875   1.06194   1.09485   1.09494
 Alpha virt. eigenvalues --    1.10842   1.10850   1.13956   1.14373   1.18162
 Alpha virt. eigenvalues --    1.18187   1.19355   1.19382   1.32403   1.32406

  Beta  occ. eigenvalues --  -20.19282 -20.19282 -20.17065 -20.17065  -0.96438
  Beta  occ. eigenvalues --   -0.96436  -0.57585  -0.57556  -0.17444  -0.17436
  Beta  occ. eigenvalues --   -0.11682  -0.11500  -0.04501  -0.04501   0.24130
  Beta virt. eigenvalues --    0.31962   0.52091   0.52093   0.76700   0.76870
  Beta virt. eigenvalues --    1.14603   1.14806   1.17046   1.17051   1.17676
  Beta virt. eigenvalues --    1.17830   1.19123   1.19125   1.26188   1.26197

 Mulliken charges and spin densities:
               1          2
     1  O   -0.407355   1.094346
     2  O   -0.592645   0.905654
     3  O   -0.592645   0.905654
     4  O   -0.407355   1.094346
 Sum of Mulliken charges =  -2.00000   4.00000

 Dipole moment (field-independent basis, Debye):
    X=             -0.0000    Y=              0.0000    Z=              0.0000  Tot=              0.0000
 Quadrupole moment (field-independent basis, Debye-Ang):
   XX=            -25.1303   YY=            -23.9657   ZZ=           -152.5089
   XY=             -0.0000   XZ=              0.0000   YZ=             -0.0000

 Normal termination of Gaussian 16 at Sat Jan  7 09:33:16 2023.
