 Gaussian 16, Revision A.03,
 Gaussian 16:  ES64L-G16RevA.03 25-Dec-2016

 ------------------------------------------------
 #p CCSD(T,MaxCyc=300)/cc-pVTZ Guess=Read SCF=XQC
 ------------------------------------------------

 ---------
 O2_O2_196
 ---------
 Symbolic Z-matrix:
 Charge = -2 Multiplicity = 5

                         Standard orientation:
 ---------------------------------------------------------------------
 Center     Atomic      Atomic             Coordinates (Angstroms)
 Number     Number       Type             X           Y           Z
 ---------------------------------------------------------------------
      1          8           0        0.000000    0.000000    2.180117
      2          8           0        0.000000    0.000000    3.532497
      3          8           0        0.000000    0.000000   -3.532497
      4          8           0        0.000000    0.000000   -2.180117
 ---------------------------------------------------------------------

 SCF Done:  E(UHF) =  -298.770104411     A.U. after   12 cycles
 E2 =    -0.1189533000D+01 EUMP2 =    -0.29995963741184D+03
 CCSD(T)
 CCSD(T)= -0.29992997534D+03

 Unable to determine electronic state:  an orbital has unidentified symmetry.
 Alpha  occ. eigenvalues --  -20.24280 -20.24280 -20.20684 -20.20684  -1.11497
 Alpha  occ. eigenvalues --   -1.11495  -0.75377  -0.75340  -0.30094  -0.30086
 Alpha  occ. eigenvalues --   -0.27405  -0.27397  -0.25468  -0.24957  -0.09482
 Alpha  occ. eigenvalues --   -0.09470  -0.06962  -0.06948   0.42805
 Alpha virt. eigenvalues --    0.54284   1.05224   1.09514   1.10758   1.10936
 Alpha virt. eigenvalues --    1.12119   1.12268   1.14136   1.18719   1.19414
 Alpha virt. eigenvalues --    1.19788   1.20600   1.21005   1.33726   1.33733

  Beta  occ. eigenvalues --  -20.18450 -20.18449 -20.15618 -20.15618  -0.95265
  Beta  occ. eigenvalues --   -0.95258  -0.56315  -0.56239  -0.16203  -0.16084
  Beta  occ. eigenvalues --   -0.10462  -0.10138  -0.03276  -0.03266   0.24599
  Beta virt. eigenvalues --    0.34075   0.53448   0.53515   0.77021   0.79557
  Beta virt. eigenvalues --    1.14087   1.16925   1.18298   1.18314   1.18453
  Beta virt. eigenvalues --    1.20367   1.20448   1.22381   1.27423   1.27767

 Mulliken charges and spin densities:
               1          2
     1  O   -0.387262   1.109923
     2  O   -0.612738   0.890077
     3  O   -0.612738   0.890077
     4  O   -0.387262   1.109923
 Sum of Mulliken charges =  -2.00000   4.00000

 Dipole moment (field-independent basis, Debye):
    X=             -0.0000    Y=              0.0000    Z=              0.0000  Tot=              0.0000
 Quadrupole moment (field-independent basis, Debye-Ang):
   XX=            -25.1448   YY=            -23.9819   ZZ=           -120.1905
   XY=             -0.0000   XZ=              0.0000   YZ=             -0.0000

 Normal termination of Gaussian 16 at Sat Jan  7 07:34:25 2023.
