 Gaussian 16, Revision A.03,
 Gaussian 16:  ES64L-G16RevA.03 25-Dec-2016

 ------------------------------------------------
 #p CCSD(T,MaxCyc=300)/cc-pVTZ Guess=Read SCF=XQC
 ------------------------------------------------

 ---------
 O2_O2_106
 ---------
 Symbolic Z-matrix:
 Charge = -2 Multiplicity = 5

                         Standard orientation:
 ---------------------------------------------------------------------
 Center     Atomic      Atomic             Coordinates (Angstroms)
 Number     Number       Type             X           Y           Z
 ---------------------------------------------------------------------
      1          8           0        0.000000    0.000000    1.542981
      2          8           0        0.000000    0.000000    2.895361
      3          8           0        0.000000    0.000000   -2.895361
      4          8           0        0.000000    0.000000   -1.542981
 ---------------------------------------------------------------------

 SCF Done:  E(UHF) =  -298.783205068     A.U. after   16 cycles
 E2 =    -0.1089781476D+01 EUMP2 =    -0.29987298654400D+03
 CCSD(T)
 CCSD(T)= -0.29989506155D+03

 Unable to determine electronic state:  an orbital has unidentified symmetry.
 Alpha  occ. eigenvalues --  -20.22731 -20.22730 -20.17859 -20.17858  -1.09047
 Alpha  occ. eigenvalues --   -1.08984  -0.72841  -0.72423  -0.27657  -0.27501
 Alpha  occ. eigenvalues --   -0.25174  -0.25011  -0.23047  -0.20745  -0.07209
 Alpha  occ. eigenvalues --   -0.06973  -0.04509  -0.04251   0.41743
 Alpha virt. eigenvalues --    0.62764   1.05738   1.11254   1.11874   1.13199
 Alpha virt. eigenvalues --    1.13506   1.14275   1.15566   1.19678   1.20916
 Alpha virt. eigenvalues --    1.26012   1.27314   1.35965   1.36324   1.52792

  Beta  occ. eigenvalues --  -20.17002 -20.17002 -20.12816 -20.12816  -0.93046
  Beta  occ. eigenvalues --   -0.92952  -0.54008  -0.53350  -0.14250  -0.12870
  Beta  occ. eigenvalues --   -0.08247  -0.07409  -0.00612  -0.00414   0.25094
  Beta virt. eigenvalues --    0.39057   0.55443   0.56492   0.78648   0.85176
  Beta virt. eigenvalues --    1.13394   1.18330   1.19742   1.19839   1.21426
  Beta virt. eigenvalues --    1.21978   1.23541   1.27692   1.30629   1.34166

 Mulliken charges and spin densities:
               1          2
     1  O   -0.365612   1.104491
     2  O   -0.634388   0.895509
     3  O   -0.634388   0.895509
     4  O   -0.365612   1.104491
 Sum of Mulliken charges =  -2.00000   4.00000

 Dipole moment (field-independent basis, Debye):
    X=             -0.0000    Y=             -0.0000    Z=              0.0000  Tot=              0.0000
 Quadrupole moment (field-independent basis, Debye-Ang):
   XX=            -25.2005   YY=            -24.0336   ZZ=            -87.2356
   XY=             -0.0000   XZ=              0.0000   YZ=             -0.0000

 Normal termination of Gaussian 16 at Sat Jan  7 05:19:15 2023.
