 Gaussian 16, Revision A.03,
 Gaussian 16:  ES64L-G16RevA.03 25-Dec-2016

 ------------------------------------------------
 #p CCSD(T,MaxCyc=300)/cc-pVTZ Guess=Read SCF=XQC
 ------------------------------------------------

 --------
 O2_O2_38
 --------
 Symbolic Z-matrix:
 Charge = -2 Multiplicity = 5

                         Standard orientation:
 ---------------------------------------------------------------------
 Center     Atomic      Atomic             Coordinates (Angstroms)
 Number     Number       Type             X           Y           Z
 ---------------------------------------------------------------------
      1          8           0        0.000000    0.000000    1.061589
      2          8           0        0.000000    0.000000    2.413969
      3          8           0        0.000000    0.000000   -2.413969
      4          8           0        0.000000    0.000000   -1.061589
 ---------------------------------------------------------------------

 SCF Done:  E(UHF) =  -298.775181007     A.U. after   13 cycles
 E2 =    -0.1028515262D+01 EUMP2 =    -0.29980369626883D+03
 CCSD(T)
 CCSD(T)= -0.29984822272D+03

 Unable to determine electronic state:  an orbital has unidentified symmetry.
 Alpha  occ. eigenvalues --  -20.16421 -20.16416 -20.13648 -20.13648  -1.05541
 Alpha  occ. eigenvalues --   -1.04744  -0.70743  -0.67064  -0.23639  -0.23038
 Alpha  occ. eigenvalues --   -0.22559  -0.21636  -0.20192  -0.13617  -0.03990
 Alpha  occ. eigenvalues --   -0.01708  -0.01037   0.00831   0.41809
 Alpha virt. eigenvalues --    0.71018   1.10101   1.12814   1.14453   1.15131
 Alpha virt. eigenvalues --    1.17364   1.19465   1.20843   1.22877   1.37724
 Alpha virt. eigenvalues --    1.38323   1.38356   1.38932   1.40789   1.86970

  Beta  occ. eigenvalues --  -20.10652 -20.10649 -20.08117 -20.08117  -0.88423
  Beta  occ. eigenvalues --   -0.87309  -0.52258  -0.46811  -0.12829  -0.05311
  Beta  occ. eigenvalues --   -0.04113  -0.03463   0.02247   0.04684   0.25248
  Beta virt. eigenvalues --    0.50531   0.58221   0.62211   0.85362   0.91440
  Beta virt. eigenvalues --    1.20246   1.20537   1.23256   1.23997   1.24503
  Beta virt. eigenvalues --    1.28814   1.29756   1.33760   1.40224   1.40275

 Mulliken charges and spin densities:
               1          2
     1  O   -0.362447   0.950336
     2  O   -0.637553   1.049664
     3  O   -0.637553   1.049664
     4  O   -0.362447   0.950336
 Sum of Mulliken charges =  -2.00000   4.00000

 Dipole moment (field-independent basis, Debye):
    X=             -0.0000    Y=              0.0000    Z=             -0.0000  Tot=              0.0000
 Quadrupole moment (field-independent basis, Debye-Ang):
   XX=            -25.2998   YY=            -24.0068   ZZ=            -69.2457
   XY=             -0.0000   XZ=              0.0000   YZ=             -0.0000

 Normal termination of Gaussian 16 at Sat Jan  7 03:45:39 2023.
