 Gaussian 16, Revision A.03,
 Gaussian 16:  ES64L-G16RevA.03 25-Dec-2016

 ------------------------------------------------
 #p CCSD(T,MaxCyc=300)/cc-pVTZ Guess=Read SCF=XQC
 ------------------------------------------------

 ---------
 O2_O2_180
 ---------
 Symbolic Z-matrix:
 Charge = -2 Multiplicity = 5

                         Standard orientation:
 ---------------------------------------------------------------------
 Center     Atomic      Atomic             Coordinates (Angstroms)
 Number     Number       Type             X           Y           Z
 ---------------------------------------------------------------------
      1          8           0        0.000000    0.000000    2.066848
      2          8           0        0.000000    0.000000    3.419228
      3          8           0        0.000000    0.000000   -3.419228
      4          8           0        0.000000    0.000000   -2.066848
 ---------------------------------------------------------------------

 SCF Done:  E(UHF) =  -298.772236277     A.U. after   16 cycles
 E2 =    -0.1168774946D+01 EUMP2 =    -0.29994101122259D+03
 CCSD(T)
 CCSD(T)= -0.29992450133D+03

 Unable to determine electronic state:  an orbital has unidentified symmetry.
 Alpha  occ. eigenvalues --  -20.24205 -20.24205 -20.20347 -20.20347  -1.11209
 Alpha  occ. eigenvalues --   -1.11205  -0.75047  -0.74993  -0.29846  -0.29832
 Alpha  occ. eigenvalues --   -0.27149  -0.27135  -0.25076  -0.24432  -0.09190
 Alpha  occ. eigenvalues --   -0.09168  -0.06677  -0.06651   0.42693
 Alpha virt. eigenvalues --    0.55492   1.04305   1.10309   1.11001   1.11324
 Alpha virt. eigenvalues --    1.12368   1.12639   1.13859   1.19614   1.20292
 Alpha virt. eigenvalues --    1.20791   1.21498   1.21525   1.34022   1.34047

  Beta  occ. eigenvalues --  -20.18405 -20.18404 -20.15314 -20.15314  -0.95066
  Beta  occ. eigenvalues --   -0.95056  -0.56066  -0.55961  -0.15982  -0.15790
  Beta  occ. eigenvalues --   -0.10225  -0.09850  -0.03027  -0.03010   0.24640
  Beta virt. eigenvalues --    0.34583   0.53733   0.53854   0.76775   0.80442
  Beta virt. eigenvalues --    1.13136   1.17292   1.18356   1.18557   1.18809
  Beta virt. eigenvalues --    1.20616   1.20764   1.25159   1.27613   1.28263

 Mulliken charges and spin densities:
               1          2
     1  O   -0.382520   1.114335
     2  O   -0.617480   0.885665
     3  O   -0.617480   0.885665
     4  O   -0.382520   1.114335
 Sum of Mulliken charges =  -2.00000   4.00000

 Dipole moment (field-independent basis, Debye):
    X=             -0.0000    Y=              0.0000    Z=              0.0000  Tot=              0.0000
 Quadrupole moment (field-independent basis, Debye-Ang):
   XX=            -25.1511   YY=            -23.9895   ZZ=           -113.8921
   XY=             -0.0000   XZ=              0.0000   YZ=             -0.0000

 Normal termination of Gaussian 16 at Sat Jan  7 07:09:33 2023.
