 Gaussian 16, Revision A.03,
 Gaussian 16:  ES64L-G16RevA.03 25-Dec-2016

 ------------------------------------------------
 #p CCSD(T,MaxCyc=300)/cc-pVTZ Guess=Read SCF=XQC
 ------------------------------------------------

 --------
 O2_O2_31
 --------
 Symbolic Z-matrix:
 Charge = -2 Multiplicity = 5

                         Standard orientation:
 ---------------------------------------------------------------------
 Center     Atomic      Atomic             Coordinates (Angstroms)
 Number     Number       Type             X           Y           Z
 ---------------------------------------------------------------------
      1          8           0        0.000000    0.000000    1.012034
      2          8           0        0.000000    0.000000    2.364414
      3          8           0        0.000000    0.000000   -2.364414
      4          8           0        0.000000    0.000000   -1.012034
 ---------------------------------------------------------------------

 SCF Done:  E(UHF) =  -298.771715300     A.U. after   13 cycles
 E2 =    -0.1020074100D+01 EUMP2 =    -0.29979178940006D+03
 CCSD(T)
 CCSD(T)= -0.29983857544D+03

 Unable to determine electronic state:  an orbital has unidentified symmetry.
 Alpha  occ. eigenvalues --  -20.15604 -20.15597 -20.13021 -20.13021  -1.05215
 Alpha  occ. eigenvalues --   -1.04165  -0.70842  -0.66170  -0.23370  -0.23268
 Alpha  occ. eigenvalues --   -0.21938  -0.21327  -0.19503  -0.12296  -0.03706
 Alpha  occ. eigenvalues --   -0.00835  -0.00711   0.01589   0.41634
 Alpha virt. eigenvalues --    0.72651   1.10026   1.12641   1.15104   1.15795
 Alpha virt. eigenvalues --    1.17702   1.19894   1.21414   1.23443   1.38502
 Alpha virt. eigenvalues --    1.38918   1.39558   1.40098   1.44065   1.89210

  Beta  occ. eigenvalues --  -20.09861 -20.09858 -20.07429 -20.07429  -0.88009
  Beta  occ. eigenvalues --   -0.86543  -0.52591  -0.45777  -0.12977  -0.05014
  Beta  occ. eigenvalues --   -0.02940  -0.02496   0.02258   0.05380   0.24944
  Beta virt. eigenvalues --    0.52158   0.58531   0.63057   0.86022   0.92262
  Beta virt. eigenvalues --    1.20634   1.20723   1.23814   1.24584   1.24883
  Beta virt. eigenvalues --    1.29430   1.30594   1.34490   1.40426   1.41080

 Mulliken charges and spin densities:
               1          2
     1  O   -0.358352   0.931552
     2  O   -0.641648   1.068448
     3  O   -0.641648   1.068448
     4  O   -0.358352   0.931552
 Sum of Mulliken charges =  -2.00000   4.00000

 Dipole moment (field-independent basis, Debye):
    X=             -0.0000    Y=             -0.0000    Z=             -0.0000  Tot=              0.0000
 Quadrupole moment (field-independent basis, Debye-Ang):
   XX=            -25.2985   YY=            -23.9890   ZZ=            -67.8416
   XY=             -0.0000   XZ=              0.0000   YZ=             -0.0000

 Normal termination of Gaussian 16 at Sat Jan  7 03:35:56 2023.
