 Gaussian 16, Revision A.03,
 Gaussian 16:  ES64L-G16RevA.03 25-Dec-2016

 ------------------------------------------------
 #p CCSD(T,MaxCyc=300)/cc-pVTZ Guess=Read SCF=XQC
 ------------------------------------------------

 ---------
 O2_O2_138
 ---------
 Symbolic Z-matrix:
 Charge = -2 Multiplicity = 5

                         Standard orientation:
 ---------------------------------------------------------------------
 Center     Atomic      Atomic             Coordinates (Angstroms)
 Number     Number       Type             X           Y           Z
 ---------------------------------------------------------------------
      1          8           0        0.000000    0.000000    1.769518
      2          8           0        0.000000    0.000000    3.121898
      3          8           0        0.000000    0.000000   -3.121898
      4          8           0        0.000000    0.000000   -1.769518
 ---------------------------------------------------------------------

 SCF Done:  E(UHF) =  -298.781020025     A.U. after   16 cycles
 E2 =    -0.1115323250D+01 EUMP2 =    -0.29989634327503D+03
 CCSD(T)
 CCSD(T)= -0.29990875932D+03

 Unable to determine electronic state:  an orbital has unidentified symmetry.
 Alpha  occ. eigenvalues --  -20.23973 -20.23972 -20.19201 -20.19201  -1.10277
 Alpha  occ. eigenvalues --   -1.10257  -0.73993  -0.73826  -0.29027  -0.28969
 Alpha  occ. eigenvalues --   -0.26336  -0.26279  -0.23903  -0.22613  -0.08265
 Alpha  occ. eigenvalues --   -0.08180  -0.05749  -0.05647   0.42042
 Alpha virt. eigenvalues --    0.59635   1.02235   1.11370   1.11507   1.12735
 Alpha virt. eigenvalues --    1.12916   1.13380   1.13978   1.19831   1.20960
 Alpha virt. eigenvalues --    1.22532   1.23844   1.34738   1.35073   1.35745

  Beta  occ. eigenvalues --  -20.18262 -20.18262 -20.14247 -20.14247  -0.94394
  Beta  occ. eigenvalues --   -0.94362  -0.55242  -0.54969  -0.15295  -0.14703
  Beta  occ. eigenvalues --   -0.09437  -0.08850  -0.02158  -0.02093   0.24752
  Beta virt. eigenvalues --    0.36359   0.54567   0.55035   0.76674   0.82975
  Beta virt. eigenvalues --    1.10846   1.17959   1.18852   1.19158   1.20068
  Beta virt. eigenvalues --    1.21297   1.21889   1.27803   1.30518   1.30671

 Mulliken charges and spin densities:
               1          2
     1  O   -0.368602   1.127021
     2  O   -0.631398   0.872979
     3  O   -0.631398   0.872979
     4  O   -0.368602   1.127021
 Sum of Mulliken charges =  -2.00000   4.00000

 Dipole moment (field-independent basis, Debye):
    X=             -0.0000    Y=             -0.0000    Z=              0.0000  Tot=              0.0000
 Quadrupole moment (field-independent basis, Debye-Ang):
   XX=            -25.1735   YY=            -24.0131   ZZ=            -98.1236
   XY=             -0.0000   XZ=              0.0000   YZ=             -0.0000

 Normal termination of Gaussian 16 at Sat Jan  7 06:06:39 2023.
