 Gaussian 16, Revision A.03,
 Gaussian 16:  ES64L-G16RevA.03 25-Dec-2016

 ------------------------------------------------
 #p CCSD(T,MaxCyc=300)/cc-pVTZ Guess=Read SCF=XQC
 ------------------------------------------------

 ---------
 O2_O2_208
 ---------
 Symbolic Z-matrix:
 Charge = -2 Multiplicity = 5

                         Standard orientation:
 ---------------------------------------------------------------------
 Center     Atomic      Atomic             Coordinates (Angstroms)
 Number     Number       Type             X           Y           Z
 ---------------------------------------------------------------------
      1          8           0        0.000000    0.000000    2.265068
      2          8           0        0.000000    0.000000    3.617448
      3          8           0        0.000000    0.000000   -3.617448
      4          8           0        0.000000    0.000000   -2.265068
 ---------------------------------------------------------------------

 SCF Done:  E(UHF) =  -298.769212101     A.U. after   12 cycles
 E2 =    -0.1204087929D+01 EUMP2 =    -0.29997330002944D+03
 CCSD(T)
 CCSD(T)= -0.29993384825D+03

 Unable to determine electronic state:  an orbital has unidentified symmetry.
 Alpha  occ. eigenvalues --  -20.24369 -20.24369 -20.20931 -20.20931  -1.11711
 Alpha  occ. eigenvalues --   -1.11709  -0.75616  -0.75588  -0.30284  -0.30279
 Alpha  occ. eigenvalues --   -0.27601  -0.27596  -0.25740  -0.25304  -0.09700
 Alpha  occ. eigenvalues --   -0.09692  -0.07176  -0.07167   0.42835
 Alpha virt. eigenvalues --    0.53525   1.05691   1.08842   1.10562   1.10673
 Alpha virt. eigenvalues --    1.11920   1.12013   1.14287   1.17336   1.19235
 Alpha virt. eigenvalues --    1.19471   1.20425   1.20680   1.33508   1.33508

  Beta  occ. eigenvalues --  -20.18524 -20.18524 -20.15845 -20.15845  -0.95429
  Beta  occ. eigenvalues --   -0.95424  -0.56508  -0.56446  -0.16382  -0.16301
  Beta  occ. eigenvalues --   -0.10646  -0.10354  -0.03467  -0.03460   0.24551
  Beta virt. eigenvalues --    0.33713   0.53233   0.53274   0.77133   0.78959
  Beta virt. eigenvalues --    1.14551   1.16596   1.18120   1.18206   1.18272
  Beta virt. eigenvalues --    1.20173   1.20222   1.20930   1.27249   1.27457

 Mulliken charges and spin densities:
               1          2
     1  O   -0.390694   1.107087
     2  O   -0.609306   0.892913
     3  O   -0.609306   0.892913
     4  O   -0.390694   1.107087
 Sum of Mulliken charges =  -2.00000   4.00000

 Dipole moment (field-independent basis, Debye):
    X=             -0.0000    Y=              0.0000    Z=              0.0000  Tot=              0.0000
 Quadrupole moment (field-independent basis, Debye-Ang):
   XX=            -25.1411   YY=            -23.9773   ZZ=           -125.0078
   XY=             -0.0000   XZ=              0.0000   YZ=             -0.0000

 682\PMP3-0=-299.9689746\MP4SDQ=-299.6728543\CCSD=-299.8151217\CCSD(T)=
 Normal termination of Gaussian 16 at Sat Jan  7 07:52:48 2023.
