 Gaussian 16, Revision A.03,
 Gaussian 16:  ES64L-G16RevA.03 25-Dec-2016

 ------------------------------------------------
 #p CCSD(T,MaxCyc=300)/cc-pVTZ Guess=Read SCF=XQC
 ------------------------------------------------

 --------
 O2_O2_59
 --------
 Symbolic Z-matrix:
 Charge = -2 Multiplicity = 5

                         Standard orientation:
 ---------------------------------------------------------------------
 Center     Atomic      Atomic             Coordinates (Angstroms)
 Number     Number       Type             X           Y           Z
 ---------------------------------------------------------------------
      1          8           0        0.000000    0.000000    1.210253
      2          8           0        0.000000    0.000000    2.562634
      3          8           0        0.000000    0.000000   -2.562634
      4          8           0        0.000000    0.000000   -1.210253
 ---------------------------------------------------------------------

 SCF Done:  E(UHF) =  -298.779346999     A.U. after   13 cycles
 E2 =    -0.1051227926D+01 EUMP2 =    -0.29983057492543D+03
 CCSD(T)
 CCSD(T)= -0.29986811431D+03

 Unable to determine electronic state:  an orbital has unidentified symmetry.
 Alpha  occ. eigenvalues --  -20.18554 -20.18551 -20.15249 -20.15249  -1.06585
 Alpha  occ. eigenvalues --   -1.06233  -0.71011  -0.69187  -0.24799  -0.24215
 Alpha  occ. eigenvalues --   -0.22664  -0.22535  -0.21937  -0.16633  -0.04963
 Alpha  occ. eigenvalues --   -0.03811  -0.02065  -0.01054   0.41984
 Alpha virt. eigenvalues --    0.67502   1.10344   1.13060   1.13292   1.13853
 Alpha virt. eigenvalues --    1.16399   1.18247   1.19849   1.21720   1.25664
 Alpha virt. eigenvalues --    1.34433   1.35252   1.37760   1.38633   1.78863

  Beta  occ. eigenvalues --  -20.12777 -20.12775 -20.09867 -20.09867  -0.89814
  Beta  occ. eigenvalues --   -0.89307  -0.52132  -0.49344  -0.12750  -0.07777
  Beta  occ. eigenvalues --   -0.06207  -0.04838   0.01756   0.02921   0.25671
  Beta virt. eigenvalues --    0.46286   0.57344   0.60029   0.83378   0.89270
  Beta virt. eigenvalues --    1.19223   1.20051   1.21789   1.22837   1.23470
  Beta virt. eigenvalues --    1.27115   1.28224   1.30744   1.32127   1.39511

 Mulliken charges and spin densities:
               1          2
     1  O   -0.372544   0.999176
     2  O   -0.627456   1.000824
     3  O   -0.627456   1.000824
     4  O   -0.372544   0.999176
 Sum of Mulliken charges =  -2.00000   4.00000

 Dipole moment (field-independent basis, Debye):
    X=             -0.0000    Y=              0.0000    Z=             -0.0000  Tot=              0.0000
 Quadrupole moment (field-independent basis, Debye-Ang):
   XX=            -25.2724   YY=            -24.0287   ZZ=            -73.8669
   XY=             -0.0000   XZ=              0.0000   YZ=             -0.0000

 Normal termination of Gaussian 16 at Sat Jan  7 04:14:45 2023.
