 Gaussian 16, Revision A.03,
 Gaussian 16:  ES64L-G16RevA.03 25-Dec-2016

 ------------------------------------------------
 #p CCSD(T,MaxCyc=300)/cc-pVTZ Guess=Read SCF=XQC
 ------------------------------------------------

 --------
 O2_O2_36
 --------
 Symbolic Z-matrix:
 Charge = -2 Multiplicity = 5

                         Standard orientation:
 ---------------------------------------------------------------------
 Center     Atomic      Atomic             Coordinates (Angstroms)
 Number     Number       Type             X           Y           Z
 ---------------------------------------------------------------------
      1          8           0        0.000000    0.000000    1.047430
      2          8           0        0.000000    0.000000    2.399810
      3          8           0        0.000000    0.000000   -2.399810
      4          8           0        0.000000    0.000000   -1.047430
 ---------------------------------------------------------------------

 SCF Done:  E(UHF) =  -298.774359834     A.U. after   13 cycles
 E2 =    -0.1026149445D+01 EUMP2 =    -0.29980050927902D+03
 CCSD(T)
 CCSD(T)= -0.29984568423D+03

 Unable to determine electronic state:  an orbital has unidentified symmetry.
 Alpha  occ. eigenvalues --  -20.16194 -20.16189 -20.13475 -20.13475  -1.05446
 Alpha  occ. eigenvalues --   -1.04584  -0.70758  -0.66820  -0.23532  -0.23123
 Alpha  occ. eigenvalues --   -0.22386  -0.21545  -0.20002  -0.13259  -0.03906
 Alpha  occ. eigenvalues --   -0.01470  -0.00943   0.01039   0.41767
 Alpha virt. eigenvalues --    0.71454   1.10079   1.12764   1.14632   1.15310
 Alpha virt. eigenvalues --    1.17459   1.19586   1.20991   1.23027   1.38263
 Alpha virt. eigenvalues --    1.38402   1.38679   1.39269   1.41569   1.87635

  Beta  occ. eigenvalues --  -20.10431 -20.10428 -20.07927 -20.07927  -0.88301
  Beta  occ. eigenvalues --   -0.87097  -0.52334  -0.46527  -0.12865  -0.05226
  Beta  occ. eigenvalues --   -0.03677  -0.03318   0.02261   0.04876   0.25171
  Beta virt. eigenvalues --    0.50984   0.58308   0.62446   0.85550   0.91669
  Beta virt. eigenvalues --    1.20372   1.20567   1.23414   1.24155   1.24609
  Beta virt. eigenvalues --    1.28987   1.29977   1.33958   1.40284   1.40618

 Mulliken charges and spin densities:
               1          2
     1  O   -0.361305   0.945134
     2  O   -0.638695   1.054866
     3  O   -0.638695   1.054866
     4  O   -0.361305   0.945134
 Sum of Mulliken charges =  -2.00000   4.00000

 Dipole moment (field-independent basis, Debye):
    X=             -0.0000    Y=              0.0000    Z=             -0.0000  Tot=              0.0000
 Quadrupole moment (field-independent basis, Debye-Ang):
   XX=            -25.3002   YY=            -24.0025   ZZ=            -68.8369
   XY=             -0.0000   XZ=              0.0000   YZ=             -0.0000

 271\PMP3-0=-299.7666367\MP4SDQ=-299.775855\CCSD=-299.7748967\CCSD(T)=-
 Normal termination of Gaussian 16 at Sat Jan  7 03:42:51 2023.
