 Gaussian 16, Revision A.03,
 Gaussian 16:  ES64L-G16RevA.03 25-Dec-2016

 ------------------------------------------------
 #p CCSD(T,MaxCyc=300)/cc-pVTZ Guess=Read SCF=XQC
 ------------------------------------------------

 --------
 O2_O2_58
 --------
 Symbolic Z-matrix:
 Charge = -2 Multiplicity = 5

                         Standard orientation:
 ---------------------------------------------------------------------
 Center     Atomic      Atomic             Coordinates (Angstroms)
 Number     Number       Type             X           Y           Z
 ---------------------------------------------------------------------
      1          8           0        0.000000    0.000000    1.203175
      2          8           0        0.000000    0.000000    2.555555
      3          8           0        0.000000    0.000000   -2.555555
      4          8           0        0.000000    0.000000   -1.203175
 ---------------------------------------------------------------------

 SCF Done:  E(UHF) =  -298.779247742     A.U. after   13 cycles
 E2 =    -0.1050233022D+01 EUMP2 =    -0.29982948076481D+03
 CCSD(T)
 CCSD(T)= -0.29986736019D+03

 Unable to determine electronic state:  an orbital has unidentified symmetry.
 Alpha  occ. eigenvalues --  -20.18460 -20.18457 -20.15180 -20.15180  -1.06534
 Alpha  occ. eigenvalues --   -1.06168  -0.70985  -0.69100  -0.24742  -0.24142
 Alpha  occ. eigenvalues --   -0.22613  -0.22545  -0.21862  -0.16514  -0.04914
 Alpha  occ. eigenvalues --   -0.03724  -0.02014  -0.00974   0.41984
 Alpha virt. eigenvalues --    0.67636   1.10331   1.13106   1.13275   1.13891
 Alpha virt. eigenvalues --    1.16444   1.18304   1.19878   1.21760   1.26263
 Alpha virt. eigenvalues --    1.34623   1.35431   1.37792   1.38683   1.79298

  Beta  occ. eigenvalues --  -20.12681 -20.12679 -20.09791 -20.09791  -0.89745
  Beta  occ. eigenvalues --   -0.89219  -0.52116  -0.49239  -0.12741  -0.07632
  Beta  occ. eigenvalues --   -0.06164  -0.04777   0.01790   0.02997   0.25664
  Beta virt. eigenvalues --    0.46470   0.57386   0.60123   0.83474   0.89366
  Beta virt. eigenvalues --    1.19261   1.20085   1.21848   1.22872   1.23517
  Beta virt. eigenvalues --    1.27193   1.28269   1.31234   1.32188   1.39548

 Mulliken charges and spin densities:
               1          2
     1  O   -0.372177   0.997015
     2  O   -0.627823   1.002985
     3  O   -0.627823   1.002985
     4  O   -0.372177   0.997015
 Sum of Mulliken charges =  -2.00000   4.00000

 Dipole moment (field-independent basis, Debye):
    X=             -0.0000    Y=              0.0000    Z=              0.0000  Tot=              0.0000
 Quadrupole moment (field-independent basis, Debye-Ang):
   XX=            -25.2743   YY=            -24.0283   ZZ=            -73.6332
   XY=             -0.0000   XZ=              0.0000   YZ=             -0.0000

 Normal termination of Gaussian 16 at Sat Jan  7 04:13:23 2023.
