 Gaussian 16, Revision A.03,
 Gaussian 16:  ES64L-G16RevA.03 25-Dec-2016

 ------------------------------------------------
 #p CCSD(T,MaxCyc=300)/cc-pVTZ Guess=Read SCF=XQC
 ------------------------------------------------

 ---------
 O2_O2_195
 ---------
 Symbolic Z-matrix:
 Charge = -2 Multiplicity = 5

                         Standard orientation:
 ---------------------------------------------------------------------
 Center     Atomic      Atomic             Coordinates (Angstroms)
 Number     Number       Type             X           Y           Z
 ---------------------------------------------------------------------
      1          8           0        0.000000    0.000000    2.173037
      2          8           0        0.000000    0.000000    3.525417
      3          8           0        0.000000    0.000000   -3.525417
      4          8           0        0.000000    0.000000   -2.173037
 ---------------------------------------------------------------------

 SCF Done:  E(UHF) =  -298.770205230     A.U. after   11 cycles
 E2 =    -0.1188277165D+01 EUMP2 =    -0.29995848239509D+03
 CCSD(T)
 CCSD(T)= -0.29992964317D+03

 Unable to determine electronic state:  an orbital has unidentified symmetry.
 Alpha  occ. eigenvalues --  -20.24274 -20.24274 -20.20663 -20.20663  -1.11479
 Alpha  occ. eigenvalues --   -1.11477  -0.75357  -0.75319  -0.30078  -0.30070
 Alpha  occ. eigenvalues --   -0.27389  -0.27381  -0.25444  -0.24926  -0.09463
 Alpha  occ. eigenvalues --   -0.09451  -0.06945  -0.06929   0.42801
 Alpha virt. eigenvalues --    0.54353   1.05176   1.09569   1.10774   1.10959
 Alpha virt. eigenvalues --    1.12135   1.12290   1.14121   1.18858   1.19428
 Alpha virt. eigenvalues --    1.19816   1.20614   1.21034   1.33745   1.33753

  Beta  occ. eigenvalues --  -20.18445 -20.18445 -20.15600 -20.15600  -0.95252
  Beta  occ. eigenvalues --   -0.95245  -0.56299  -0.56221  -0.16189  -0.16066
  Beta  occ. eigenvalues --   -0.10447  -0.10120  -0.03260  -0.03250   0.24603
  Beta virt. eigenvalues --    0.34106   0.53466   0.53535   0.77008   0.79609
  Beta virt. eigenvalues --    1.14038   1.16950   1.18301   1.18330   1.18474
  Beta virt. eigenvalues --    1.20383   1.20467   1.22524   1.27436   1.27795

 Mulliken charges and spin densities:
               1          2
     1  O   -0.386970   1.110177
     2  O   -0.613030   0.889823
     3  O   -0.613030   0.889823
     4  O   -0.386970   1.110177
 Sum of Mulliken charges =  -2.00000   4.00000

 Dipole moment (field-independent basis, Debye):
    X=             -0.0000    Y=              0.0000    Z=              0.0000  Tot=              0.0000
 Quadrupole moment (field-independent basis, Debye-Ang):
   XX=            -25.1452   YY=            -23.9823   ZZ=           -119.7930
   XY=             -0.0000   XZ=              0.0000   YZ=             -0.0000

 Normal termination of Gaussian 16 at Sat Jan  7 07:32:50 2023.
