 Gaussian 16, Revision A.03,
 Gaussian 16:  ES64L-G16RevA.03 25-Dec-2016

 ------------------------------------------------
 #p CCSD(T,MaxCyc=300)/cc-pVTZ Guess=Read SCF=XQC
 ------------------------------------------------

 ---------
 O2_O2_185
 ---------
 Symbolic Z-matrix:
 Charge = -2 Multiplicity = 5

                         Standard orientation:
 ---------------------------------------------------------------------
 Center     Atomic      Atomic             Coordinates (Angstroms)
 Number     Number       Type             X           Y           Z
 ---------------------------------------------------------------------
      1          8           0        0.000000    0.000000    2.102244
      2          8           0        0.000000    0.000000    3.454625
      3          8           0        0.000000    0.000000   -3.454625
      4          8           0        0.000000    0.000000   -2.102244
 ---------------------------------------------------------------------

 SCF Done:  E(UHF) =  -298.771450998     A.U. after   12 cycles
 E2 =    -0.1175398991D+01 EUMP2 =    -0.29994684998919D+03
 CCSD(T)
 CCSD(T)= -0.29992624734D+03

 Unable to determine electronic state:  an orbital has unidentified symmetry.
 Alpha  occ. eigenvalues --  -20.24224 -20.24223 -20.20454 -20.20454  -1.11300
 Alpha  occ. eigenvalues --   -1.11296  -0.75152  -0.75104  -0.29923  -0.29911
 Alpha  occ. eigenvalues --   -0.27229  -0.27217  -0.25202  -0.24604  -0.09282
 Alpha  occ. eigenvalues --   -0.09264  -0.06767  -0.06745   0.42738
 Alpha virt. eigenvalues --    0.55089   1.04624   1.10081   1.10928   1.11197
 Alpha virt. eigenvalues --    1.12292   1.12518   1.13950   1.19558   1.20122
 Alpha virt. eigenvalues --    1.20496   1.20738   1.21349   1.33929   1.33947

  Beta  occ. eigenvalues --  -20.18412 -20.18412 -20.15411 -20.15411  -0.95126
  Beta  occ. eigenvalues --   -0.95117  -0.56143  -0.56049  -0.16050  -0.15883
  Beta  occ. eigenvalues --   -0.10299  -0.09941  -0.03104  -0.03090   0.24630
  Beta virt. eigenvalues --    0.34420   0.53644   0.53745   0.76860   0.80156
  Beta virt. eigenvalues --    1.13469   1.17186   1.18332   1.18484   1.18694
  Beta virt. eigenvalues --    1.20539   1.20663   1.24175   1.27560   1.28095

 Mulliken charges and spin densities:
               1          2
     1  O   -0.384030   1.112857
     2  O   -0.615970   0.887143
     3  O   -0.615970   0.887143
     4  O   -0.384030   1.112857
 Sum of Mulliken charges =  -2.00000   4.00000

 Dipole moment (field-independent basis, Debye):
    X=             -0.0000    Y=              0.0000    Z=              0.0000  Tot=              0.0000
 Quadrupole moment (field-independent basis, Debye-Ang):
   XX=            -25.1490   YY=            -23.9870   ZZ=           -115.8459
   XY=             -0.0000   XZ=              0.0000   YZ=             -0.0000

 Normal termination of Gaussian 16 at Sat Jan  7 07:17:18 2023.
