 Gaussian 16, Revision A.03,
 Gaussian 16:  ES64L-G16RevA.03 25-Dec-2016

 ------------------------------------------------
 #p CCSD(T,MaxCyc=300)/cc-pVTZ Guess=Read SCF=XQC
 ------------------------------------------------

 ---------
 O2_O2_125
 ---------
 Symbolic Z-matrix:
 Charge = -2 Multiplicity = 5

                         Standard orientation:
 ---------------------------------------------------------------------
 Center     Atomic      Atomic             Coordinates (Angstroms)
 Number     Number       Type             X           Y           Z
 ---------------------------------------------------------------------
      1          8           0        0.000000    0.000000    1.677487
      2          8           0        0.000000    0.000000    3.029867
      3          8           0        0.000000    0.000000   -3.029867
      4          8           0        0.000000    0.000000   -1.677487
 ---------------------------------------------------------------------

 SCF Done:  E(UHF) =  -298.782815680     A.U. after   16 cycles
 E2 =    -0.1103133966D+01 EUMP2 =    -0.29988594964655D+03
 CCSD(T)
 CCSD(T)= -0.29990344597D+03

 Unable to determine electronic state:  an orbital has unidentified symmetry.
 Alpha  occ. eigenvalues --  -20.23671 -20.23670 -20.18686 -20.18685  -1.09851
 Alpha  occ. eigenvalues --   -1.09819  -0.73563  -0.73322  -0.28590  -0.28502
 Alpha  occ. eigenvalues --   -0.25944  -0.25857  -0.23533  -0.21909  -0.07871
 Alpha  occ. eigenvalues --   -0.07744  -0.05316  -0.05167   0.41854
 Alpha virt. eigenvalues --    0.60978   1.02811   1.11428   1.11637   1.13048
 Alpha virt. eigenvalues --    1.13334   1.13414   1.14563   1.19803   1.20934
 Alpha virt. eigenvalues --    1.23693   1.25030   1.35272   1.35520   1.42001

  Beta  occ. eigenvalues --  -20.17962 -20.17961 -20.13725 -20.13725  -0.93973
  Beta  occ. eigenvalues --   -0.93924  -0.54820  -0.54436  -0.14939  -0.14109
  Beta  occ. eigenvalues --   -0.09024  -0.08342  -0.01659  -0.01560   0.24857
  Beta virt. eigenvalues --    0.37230   0.54895   0.55562   0.77230   0.83815
  Beta virt. eigenvalues --    1.11198   1.18129   1.19153   1.19386   1.20600
  Beta virt. eigenvalues --    1.21565   1.22439   1.27777   1.30624   1.31726

 Mulliken charges and spin densities:
               1          2
     1  O   -0.364832   1.125365
     2  O   -0.635168   0.874635
     3  O   -0.635168   0.874635
     4  O   -0.364832   1.125365
 Sum of Mulliken charges =  -2.00000   4.00000

 Dipole moment (field-independent basis, Debye):
    X=             -0.0000    Y=              0.0000    Z=              0.0000  Tot=              0.0000
 Quadrupole moment (field-independent basis, Debye-Ang):
   XX=            -25.1828   YY=            -24.0209   ZZ=            -93.6023
   XY=             -0.0000   XZ=              0.0000   YZ=             -0.0000

 Normal termination of Gaussian 16 at Sat Jan  7 05:47:19 2023.
