 Gaussian 16, Revision A.03,
 Gaussian 16:  ES64L-G16RevA.03 25-Dec-2016

 ------------------------------------------------
 #p CCSD(T,MaxCyc=300)/cc-pVTZ Guess=Read SCF=XQC
 ------------------------------------------------

 ---------
 O2_O2_287
 ---------
 Symbolic Z-matrix:
 Charge = -2 Multiplicity = 5

                         Standard orientation:
 ---------------------------------------------------------------------
 Center     Atomic      Atomic             Coordinates (Angstroms)
 Number     Number       Type             X           Y           Z
 ---------------------------------------------------------------------
      1          8           0        0.000000    0.000000    2.824332
      2          8           0        0.000000    0.000000    4.176712
      3          8           0        0.000000    0.000000   -4.176712
      4          8           0        0.000000    0.000000   -2.824332
 ---------------------------------------------------------------------

 SCF Done:  E(UHF) =  -298.771684909     A.U. after   14 cycles
 E2 =    -0.1280044037D+01 EUMP2 =    -0.30005172894630D+03
 CCSD(T)
 CCSD(T)= -0.29995423861D+03

 Unable to determine electronic state:  an orbital has unidentified symmetry.
 Alpha  occ. eigenvalues --  -20.25315 -20.25315 -20.22513 -20.22513  -1.13046
 Alpha  occ. eigenvalues --   -1.13046  -0.77037  -0.77030  -0.31551  -0.31551
 Alpha  occ. eigenvalues --   -0.28897  -0.28896  -0.27198  -0.26992  -0.11097
 Alpha  occ. eigenvalues --   -0.11096  -0.08546  -0.08545   0.42455
 Alpha virt. eigenvalues --    0.50452   1.05675   1.05845   1.09252   1.09258
 Alpha virt. eigenvalues --    1.10609   1.10614   1.13738   1.14047   1.17923
 Alpha virt. eigenvalues --    1.17941   1.19116   1.19135   1.32172   1.32174

  Beta  occ. eigenvalues --  -20.19483 -20.19483 -20.17335 -20.17334  -0.96672
  Beta  occ. eigenvalues --   -0.96670  -0.57824  -0.57799  -0.17686  -0.17681
  Beta  occ. eigenvalues --   -0.11913  -0.11748  -0.04727  -0.04727   0.24019
  Beta virt. eigenvalues --    0.31601   0.51843   0.51844   0.76480   0.76565
  Beta virt. eigenvalues --    1.14396   1.14501   1.16811   1.16814   1.17442
  Beta virt. eigenvalues --    1.17514   1.18894   1.18895   1.25950   1.25954

 Mulliken charges and spin densities:
               1          2
     1  O   -0.410762   1.091635
     2  O   -0.589238   0.908365
     3  O   -0.589238   0.908365
     4  O   -0.410762   1.091635
 Sum of Mulliken charges =  -2.00000   4.00000

 Dipole moment (field-independent basis, Debye):
    X=             -0.0000    Y=              0.0000    Z=              0.0000  Tot=              0.0000
 Quadrupole moment (field-independent basis, Debye-Ang):
   XX=            -25.1290   YY=            -23.9648   ZZ=           -159.4749
   XY=             -0.0000   XZ=              0.0000   YZ=             -0.0000

 Normal termination of Gaussian 16 at Sat Jan  7 09:56:22 2023.
