 Gaussian 16, Revision A.03,
 Gaussian 16:  ES64L-G16RevA.03 25-Dec-2016

 ------------------------------------------------
 #p CCSD(T,MaxCyc=300)/cc-pVTZ Guess=Read SCF=XQC
 ------------------------------------------------

 ---------
 O2_O2_291
 ---------
 Symbolic Z-matrix:
 Charge = -2 Multiplicity = 5

                         Standard orientation:
 ---------------------------------------------------------------------
 Center     Atomic      Atomic             Coordinates (Angstroms)
 Number     Number       Type             X           Y           Z
 ---------------------------------------------------------------------
      1          8           0        0.000000    0.000000    2.852649
      2          8           0        0.000000    0.000000    4.205029
      3          8           0        0.000000    0.000000   -4.205029
      4          8           0        0.000000    0.000000   -2.852649
 ---------------------------------------------------------------------

 SCF Done:  E(UHF) =  -298.771953287     A.U. after   14 cycles
 E2 =    -0.1283343149D+01 EUMP2 =    -0.30005529643584D+03
 CCSD(T)
 CCSD(T)= -0.29995507417D+03

 Unable to determine electronic state:  an orbital has unidentified symmetry.
 Alpha  occ. eigenvalues --  -20.25365 -20.25365 -20.22586 -20.22586  -1.13107
 Alpha  occ. eigenvalues --   -1.13106  -0.77101  -0.77094  -0.31611  -0.31610
 Alpha  occ. eigenvalues --   -0.28957  -0.28957  -0.27259  -0.27060  -0.11161
 Alpha  occ. eigenvalues --   -0.11161  -0.08608  -0.08608   0.42427
 Alpha virt. eigenvalues --    0.50346   1.05618   1.05762   1.09191   1.09197
 Alpha virt. eigenvalues --    1.10549   1.10553   1.13679   1.13967   1.17861
 Alpha virt. eigenvalues --    1.17878   1.19054   1.19072   1.32112   1.32114

  Beta  occ. eigenvalues --  -20.19536 -20.19536 -20.17404 -20.17404  -0.96733
  Beta  occ. eigenvalues --   -0.96731  -0.57885  -0.57861  -0.17749  -0.17744
  Beta  occ. eigenvalues --   -0.11973  -0.11812  -0.04785  -0.04785   0.23990
  Beta virt. eigenvalues --    0.31507   0.51779   0.51780   0.76419   0.76490
  Beta virt. eigenvalues --    1.14338   1.14426   1.16750   1.16753   1.17379
  Beta virt. eigenvalues --    1.17438   1.18835   1.18836   1.25889   1.25892

 Mulliken charges and spin densities:
               1          2
     1  O   -0.411631   1.090936
     2  O   -0.588369   0.909064
     3  O   -0.588369   0.909064
     4  O   -0.411631   1.090936
 Sum of Mulliken charges =  -2.00000   4.00000

 Dipole moment (field-independent basis, Debye):
    X=             -0.0000    Y=              0.0000    Z=             -0.0000  Tot=              0.0000
 Quadrupole moment (field-independent basis, Debye-Ang):
   XX=            -25.1287   YY=            -23.9646   ZZ=           -161.3689
   XY=             -0.0000   XZ=              0.0000   YZ=             -0.0000

 Normal termination of Gaussian 16 at Sat Jan  7 10:02:10 2023.
