 Gaussian 16, Revision A.03,
 Gaussian 16:  ES64L-G16RevA.03 25-Dec-2016

 ------------------------------------------------
 #p CCSD(T,MaxCyc=300)/cc-pVTZ Guess=Read SCF=XQC
 ------------------------------------------------

 --------
 O2_O2_22
 --------
 Symbolic Z-matrix:
 Charge = -2 Multiplicity = 5

                         Standard orientation:
 ---------------------------------------------------------------------
 Center     Atomic      Atomic             Coordinates (Angstroms)
 Number     Number       Type             X           Y           Z
 ---------------------------------------------------------------------
      1          8           0        0.000000    0.000000    0.948320
      2          8           0        0.000000    0.000000    2.300700
      3          8           0        0.000000    0.000000   -2.300700
      4          8           0        0.000000    0.000000   -0.948320
 ---------------------------------------------------------------------

 SCF Done:  E(UHF) =  -298.763964901     A.U. after   13 cycles
 E2 =    -0.1008548065D+01 EUMP2 =    -0.29977251296618D+03
 CCSD(T)
 CCSD(T)= -0.29982216640D+03

 Unable to determine electronic state:  an orbital has unidentified symmetry.
 Alpha  occ. eigenvalues --  -20.14453 -20.14445 -20.12107 -20.12106  -1.04841
 Alpha  occ. eigenvalues --   -1.03334  -0.71202  -0.64836  -0.23950  -0.22817
 Alpha  occ. eigenvalues --   -0.21071  -0.20986  -0.18512  -0.10282  -0.03396
 Alpha  occ. eigenvalues --   -0.00311   0.00467   0.02703   0.41263
 Alpha virt. eigenvalues --    0.75268   1.09967   1.12432   1.15997   1.16764
 Alpha virt. eigenvalues --    1.18164   1.20480   1.22402   1.24357   1.38621
 Alpha virt. eigenvalues --    1.39306   1.41083   1.41534   1.48600   1.91696

  Beta  occ. eigenvalues --  -20.08771 -20.08767 -20.06428 -20.06427  -0.87570
  Beta  occ. eigenvalues --   -0.85456  -0.53344  -0.44264  -0.13243  -0.04641
  Beta  occ. eigenvalues --   -0.02197   0.00022   0.02078   0.06388   0.24394
  Beta virt. eigenvalues --    0.54433   0.58958   0.64255   0.86859   0.93431
  Beta virt. eigenvalues --    1.20719   1.21510   1.24526   1.25416   1.25438
  Beta virt. eigenvalues --    1.30283   1.31914   1.35580   1.40644   1.41415

 Mulliken charges and spin densities:
               1          2
     1  O   -0.352441   0.904878
     2  O   -0.647559   1.095122
     3  O   -0.647559   1.095122
     4  O   -0.352441   0.904878
 Sum of Mulliken charges =  -2.00000   4.00000

 Dipole moment (field-independent basis, Debye):
    X=             -0.0000    Y=              0.0000    Z=             -0.0000  Tot=              0.0000
 Quadrupole moment (field-independent basis, Debye-Ang):
   XX=            -25.2833   YY=            -23.9529   ZZ=            -66.1644
   XY=             -0.0000   XZ=              0.0000   YZ=             -0.0000

 5\PMP3-0=-299.7425032\MP4SDQ=-299.7558266\CCSD=-299.7571363\CCSD(T)=-2
 Normal termination of Gaussian 16 at Sat Jan  7 03:23:36 2023.
