 Gaussian 16, Revision A.03,
 Gaussian 16:  ES64L-G16RevA.03 25-Dec-2016

 ------------------------------------------------
 #p CCSD(T,MaxCyc=300)/cc-pVTZ Guess=Read SCF=XQC
 ------------------------------------------------

 ---------
 O2_O2_242
 ---------
 Symbolic Z-matrix:
 Charge = -2 Multiplicity = 5

                         Standard orientation:
 ---------------------------------------------------------------------
 Center     Atomic      Atomic             Coordinates (Angstroms)
 Number     Number       Type             X           Y           Z
 ---------------------------------------------------------------------
      1          8           0        0.000000    0.000000    2.505764
      2          8           0        0.000000    0.000000    3.858144
      3          8           0        0.000000    0.000000   -3.858144
      4          8           0        0.000000    0.000000   -2.505764
 ---------------------------------------------------------------------

 SCF Done:  E(UHF) =  -298.769148021     A.U. after    9 cycles
 E2 =    -0.1240233766D+01 EUMP2 =    -0.30000938178711D+03
 CCSD(T)
 CCSD(T)= -0.29994364930D+03

 Unable to determine electronic state:  an orbital has unidentified symmetry.
 Alpha  occ. eigenvalues --  -20.24738 -20.24738 -20.21632 -20.21632  -1.12310
 Alpha  occ. eigenvalues --   -1.12309  -0.76263  -0.76249  -0.30842  -0.30840
 Alpha  occ. eigenvalues --   -0.28172  -0.28170  -0.26430  -0.26132  -0.10320
 Alpha  occ. eigenvalues --   -0.10318  -0.07786  -0.07783   0.42744
 Alpha virt. eigenvalues --    0.51898   1.06114   1.07156   1.09982   1.10010
 Alpha virt. eigenvalues --    1.11338   1.11361   1.14301   1.15262   1.18666
 Alpha virt. eigenvalues --    1.18730   1.19859   1.19928   1.32899   1.32904

  Beta  occ. eigenvalues --  -20.18883 -20.18883 -20.16499 -20.16499  -0.95955
  Beta  occ. eigenvalues --   -0.95952  -0.57082  -0.57044  -0.16940  -0.16915
  Beta  occ. eigenvalues --   -0.11197  -0.10973  -0.04023  -0.04022   0.24349
  Beta virt. eigenvalues --    0.32744   0.52615   0.52625   0.77063   0.77647
  Beta virt. eigenvalues --    1.14888   1.15563   1.17544   1.17563   1.18074
  Beta virt. eigenvalues --    1.18719   1.19607   1.19618   1.26688   1.26732

 Mulliken charges and spin densities:
               1          2
     1  O   -0.399940   1.100050
     2  O   -0.600060   0.899950
     3  O   -0.600060   0.899950
     4  O   -0.399940   1.100050
 Sum of Mulliken charges =  -2.00000   4.00000

 Dipole moment (field-independent basis, Debye):
    X=             -0.0000    Y=              0.0000    Z=              0.0000  Tot=              0.0000
 Quadrupole moment (field-independent basis, Debye-Ang):
   XX=            -25.1339   YY=            -23.9690   ZZ=           -139.1955
   XY=             -0.0000   XZ=              0.0000   YZ=             -0.0000

 Normal termination of Gaussian 16 at Sat Jan  7 08:44:55 2023.
