 Gaussian 16, Revision A.03,
 Gaussian 16:  ES64L-G16RevA.03 25-Dec-2016

 ------------------------------------------------
 #p CCSD(T,MaxCyc=300)/cc-pVTZ Guess=Read SCF=XQC
 ------------------------------------------------

 -------
 O2_O2_1
 -------
 Symbolic Z-matrix:
 Charge = -2 Multiplicity = 5

                         Standard orientation:
 ---------------------------------------------------------------------
 Center     Atomic      Atomic             Coordinates (Angstroms)
 Number     Number       Type             X           Y           Z
 ---------------------------------------------------------------------
      1          8           0        0.000000    0.000000    0.799655
      2          8           0        0.000000    0.000000    2.152035
      3          8           0        0.000000    0.000000   -2.152035
      4          8           0        0.000000    0.000000   -0.799655
 ---------------------------------------------------------------------

 SCF Done:  E(UHF) =  -298.716149730     A.U. after   13 cycles
 E2 =    -0.9793314055D+00 EUMP2 =    -0.29969548113551D+03
 CCSD(T)
 CCSD(T)= -0.29975123591D+03

 Unable to determine electronic state:  an orbital has unidentified symmetry.
 Alpha  occ. eigenvalues --  -20.11519 -20.11501 -20.09234 -20.09234  -1.04659
 Alpha  occ. eigenvalues --   -1.00907  -0.73841  -0.60720  -0.26132  -0.22169
 Alpha  occ. eigenvalues --   -0.20931  -0.18650  -0.15633  -0.03821  -0.03170
 Alpha  occ. eigenvalues --    0.00477   0.04495   0.06120   0.39318
 Alpha virt. eigenvalues --    0.84768   1.10641   1.11797   1.17757   1.18877
 Alpha virt. eigenvalues --    1.19442   1.22078   1.25865   1.27439   1.38327
 Alpha virt. eigenvalues --    1.39019   1.44229   1.44488   1.55710   1.92797

  Beta  occ. eigenvalues --  -20.06087 -20.06076 -20.03336 -20.03336  -0.87865
  Beta  occ. eigenvalues --   -0.82378  -0.57127  -0.39759  -0.13994  -0.04062
  Beta  occ. eigenvalues --   -0.00016   0.00093   0.08873   0.09394   0.22101
  Beta virt. eigenvalues --    0.60129   0.60585   0.67592   0.88375   0.96946
  Beta virt. eigenvalues --    1.20303   1.24804   1.25919   1.26946   1.27251
  Beta virt. eigenvalues --    1.32614   1.35354   1.38663   1.40929   1.41269

 Mulliken charges and spin densities:
               1          2
     1  O   -0.327707   0.838100
     2  O   -0.672293   1.161900
     3  O   -0.672293   1.161900
     4  O   -0.327707   0.838100
 Sum of Mulliken charges =  -2.00000   4.00000

 Dipole moment (field-independent basis, Debye):
    X=             -0.0000    Y=              0.0000    Z=             -0.0000  Tot=              0.0000
 Quadrupole moment (field-independent basis, Debye-Ang):
   XX=            -25.1563   YY=            -23.7778   ZZ=            -63.1651
   XY=             -0.0000   XZ=              0.0000   YZ=             -0.0000

 72\PMP3-0=-299.6732987\MP4SDQ=-299.6908304\CCSD=-299.6948976\CCSD(T)=-
 Normal termination of Gaussian 16 at Sat Jan  7 02:55:46 2023.
