 Gaussian 16, Revision A.03,
 Gaussian 16:  ES64L-G16RevA.03 25-Dec-2016

 ------------------------------------------------
 #p CCSD(T,MaxCyc=300)/cc-pVTZ Guess=Read SCF=XQC
 ------------------------------------------------

 ---------
 O2_O2_230
 ---------
 Symbolic Z-matrix:
 Charge = -2 Multiplicity = 5

                         Standard orientation:
 ---------------------------------------------------------------------
 Center     Atomic      Atomic             Coordinates (Angstroms)
 Number     Number       Type             X           Y           Z
 ---------------------------------------------------------------------
      1          8           0        0.000000    0.000000    2.420813
      2          8           0        0.000000    0.000000    3.773193
      3          8           0        0.000000    0.000000   -3.773193
      4          8           0        0.000000    0.000000   -2.420813
 ---------------------------------------------------------------------

 SCF Done:  E(UHF) =  -298.768849281     A.U. after   10 cycles
 E2 =    -0.1228270264D+01 EUMP2 =    -0.29999711954585D+03
 CCSD(T)
 CCSD(T)= -0.29994038537D+03

 Unable to determine electronic state:  an orbital has unidentified symmetry.
 Alpha  occ. eigenvalues --  -20.24594 -20.24594 -20.21386 -20.21385  -1.12100
 Alpha  occ. eigenvalues --   -1.12100  -0.76040  -0.76022  -0.30644  -0.30642
 Alpha  occ. eigenvalues --   -0.27970  -0.27967  -0.26199  -0.25862  -0.10102
 Alpha  occ. eigenvalues --   -0.10099  -0.07571  -0.07567   0.42798
 Alpha virt. eigenvalues --    0.52399   1.06086   1.07680   1.10187   1.10233
 Alpha virt. eigenvalues --    1.11544   1.11582   1.14363   1.15792   1.18872
 Alpha virt. eigenvalues --    1.18972   1.20064   1.20172   1.33109   1.33114

  Beta  occ. eigenvalues --  -20.18738 -20.18738 -20.16267 -20.16267  -0.95762
  Beta  occ. eigenvalues --   -0.95759  -0.56877  -0.56833  -0.16738  -0.16699
  Beta  occ. eigenvalues --   -0.11000  -0.10755  -0.03826  -0.03823   0.24429
  Beta virt. eigenvalues --    0.33076   0.52832   0.52849   0.77145   0.78048
  Beta virt. eigenvalues --    1.14892   1.15922   1.17749   1.17782   1.18178
  Beta virt. eigenvalues --    1.19274   1.19807   1.19826   1.26891   1.26969

 Mulliken charges and spin densities:
               1          2
     1  O   -0.396766   1.102436
     2  O   -0.603234   0.897564
     3  O   -0.603234   0.897564
     4  O   -0.396766   1.102436
 Sum of Mulliken charges =  -2.00000   4.00000

 Dipole moment (field-independent basis, Debye):
    X=             -0.0000    Y=              0.0000    Z=              0.0000  Tot=              0.0000
 Quadrupole moment (field-independent basis, Debye-Ang):
   XX=            -25.1359   YY=            -23.9713   ZZ=           -134.0874
   XY=             -0.0000   XZ=              0.0000   YZ=             -0.0000

 006011\PMP3-0=-300.0039693\MP4SDQ=-299.607232\CCSD=-299.81799\CCSD(T)=
 Normal termination of Gaussian 16 at Sat Jan  7 08:26:21 2023.
