 Gaussian 16, Revision A.03,
 Gaussian 16:  ES64L-G16RevA.03 25-Dec-2016

 ------------------------------------------------
 #p CCSD(T,MaxCyc=300)/cc-pVTZ Guess=Read SCF=XQC
 ------------------------------------------------

 --------
 O2_O2_46
 --------
 Symbolic Z-matrix:
 Charge = -2 Multiplicity = 5

                         Standard orientation:
 ---------------------------------------------------------------------
 Center     Atomic      Atomic             Coordinates (Angstroms)
 Number     Number       Type             X           Y           Z
 ---------------------------------------------------------------------
      1          8           0        0.000000    0.000000    1.118223
      2          8           0        0.000000    0.000000    2.470603
      3          8           0        0.000000    0.000000   -2.470603
      4          8           0        0.000000    0.000000   -1.118223
 ---------------------------------------------------------------------

 SCF Done:  E(UHF) =  -298.777493505     A.U. after   14 cycles
 E2 =    -0.1037621206D+01 EUMP2 =    -0.29981511471115D+03
 CCSD(T)
 CCSD(T)= -0.29985701903D+03

 Unable to determine electronic state:  an orbital has unidentified symmetry.
 Alpha  occ. eigenvalues --  -20.17281 -20.17277 -20.14299 -20.14298  -1.05931
 Alpha  occ. eigenvalues --   -1.05348  -0.70765  -0.67957  -0.24074  -0.23221
 Alpha  occ. eigenvalues --   -0.22768  -0.22015  -0.20905  -0.14911  -0.04344
 Alpha  occ. eigenvalues --   -0.02586  -0.01421   0.00055   0.41924
 Alpha virt. eigenvalues --    0.69477   1.10192   1.13017   1.13814   1.14514
 Alpha virt. eigenvalues --    1.16990   1.18992   1.20358   1.22353   1.33655
 Alpha virt. eigenvalues --    1.36869   1.37558   1.38152   1.39409   1.84125

  Beta  occ. eigenvalues --  -20.11498 -20.11496 -20.08829 -20.08829  -0.88935
  Beta  occ. eigenvalues --   -0.88114  -0.52081  -0.47863  -0.12732  -0.05684
  Beta  occ. eigenvalues --   -0.05651  -0.04014   0.02125   0.03964   0.25487
  Beta virt. eigenvalues --    0.48811   0.57882   0.61323   0.84611   0.90572
  Beta virt. eigenvalues --    1.19797   1.20396   1.22648   1.23446   1.24095
  Beta virt. eigenvalues --    1.28147   1.29012   1.33045   1.37273   1.39969

 Mulliken charges and spin densities:
               1          2
     1  O   -0.366778   0.970006
     2  O   -0.633222   1.029994
     3  O   -0.633222   1.029994
     4  O   -0.366778   0.970006
 Sum of Mulliken charges =  -2.00000   4.00000

 Dipole moment (field-independent basis, Debye):
    X=             -0.0000    Y=             -0.0000    Z=              0.0000  Tot=              0.0000
 Quadrupole moment (field-independent basis, Debye-Ang):
   XX=            -25.2934   YY=            -24.0193   ZZ=            -70.9368
   XY=             -0.0000   XZ=              0.0000   YZ=             -0.0000

 Normal termination of Gaussian 16 at Sat Jan  7 03:56:44 2023.
