 Gaussian 16, Revision A.03,
 Gaussian 16:  ES64L-G16RevA.03 25-Dec-2016

 ------------------------------------------------
 #p CCSD(T,MaxCyc=300)/cc-pVTZ Guess=Read SCF=XQC
 ------------------------------------------------

 ---------
 O2_O2_192
 ---------
 Symbolic Z-matrix:
 Charge = -2 Multiplicity = 5

                         Standard orientation:
 ---------------------------------------------------------------------
 Center     Atomic      Atomic             Coordinates (Angstroms)
 Number     Number       Type             X           Y           Z
 ---------------------------------------------------------------------
      1          8           0        0.000000    0.000000    2.151800
      2          8           0        0.000000    0.000000    3.504180
      3          8           0        0.000000    0.000000   -3.504180
      4          8           0        0.000000    0.000000   -2.151800
 ---------------------------------------------------------------------

 SCF Done:  E(UHF) =  -298.770533345     A.U. after   12 cycles
 E2 =    -0.1184473210D+01 EUMP2 =    -0.29995500655501D+03
 CCSD(T)
 CCSD(T)= -0.29992863842D+03

 Unable to determine electronic state:  an orbital has unidentified symmetry.
 Alpha  occ. eigenvalues --  -20.24257 -20.24256 -20.20601 -20.20601  -1.11426
 Alpha  occ. eigenvalues --   -1.11423  -0.75296  -0.75256  -0.30031  -0.30022
 Alpha  occ. eigenvalues --   -0.27341  -0.27332  -0.25373  -0.24833  -0.09409
 Alpha  occ. eigenvalues --   -0.09395  -0.06891  -0.06874   0.42786
 Alpha virt. eigenvalues --    0.54564   1.05024   1.09729   1.10821   1.11028
 Alpha virt. eigenvalues --    1.12183   1.12356   1.14072   1.19302   1.19469
 Alpha virt. eigenvalues --    1.19904   1.20653   1.21124   1.33800   1.33810

  Beta  occ. eigenvalues --  -20.18433 -20.18432 -20.15543 -20.15543  -0.95213
  Beta  occ. eigenvalues --   -0.95206  -0.56252  -0.56170  -0.16146  -0.16012
  Beta  occ. eigenvalues --   -0.10402  -0.10066  -0.03213  -0.03202   0.24612
  Beta virt. eigenvalues --    0.34199   0.53520   0.53597   0.76968   0.79770
  Beta virt. eigenvalues --    1.13883   1.17025   1.18309   1.18377   1.18539
  Beta virt. eigenvalues --    1.20430   1.20525   1.22977   1.27475   1.27881

 Mulliken charges and spin densities:
               1          2
     1  O   -0.386096   1.110947
     2  O   -0.613904   0.889053
     3  O   -0.613904   0.889053
     4  O   -0.386096   1.110947
 Sum of Mulliken charges =  -2.00000   4.00000

 Dipole moment (field-independent basis, Debye):
    X=             -0.0000    Y=              0.0000    Z=             -0.0000  Tot=              0.0000
 Quadrupole moment (field-independent basis, Debye-Ang):
   XX=            -25.1463   YY=            -23.9837   ZZ=           -118.6033
   XY=             -0.0000   XZ=              0.0000   YZ=             -0.0000

 Normal termination of Gaussian 16 at Sat Jan  7 07:28:08 2023.
