 Gaussian 16, Revision A.03,
 Gaussian 16:  ES64L-G16RevA.03 25-Dec-2016

 ------------------------------------------------
 #p CCSD(T,MaxCyc=300)/cc-pVTZ Guess=Read SCF=XQC
 ------------------------------------------------

 ---------
 O2_O2_258
 ---------
 Symbolic Z-matrix:
 Charge = -2 Multiplicity = 5

                         Standard orientation:
 ---------------------------------------------------------------------
 Center     Atomic      Atomic             Coordinates (Angstroms)
 Number     Number       Type             X           Y           Z
 ---------------------------------------------------------------------
      1          8           0        0.000000    0.000000    2.619033
      2          8           0        0.000000    0.000000    3.971413
      3          8           0        0.000000    0.000000   -3.971413
      4          8           0        0.000000    0.000000   -2.619033
 ---------------------------------------------------------------------

 SCF Done:  E(UHF) =  -298.769879783     A.U. after   15 cycles
 E2 =    -0.1255128993D+01 EUMP2 =    -0.30002500877588D+03
 CCSD(T)
 CCSD(T)= -0.29994769097D+03

 Unable to determine electronic state:  an orbital has unidentified symmetry.
 Alpha  occ. eigenvalues --  -20.24942 -20.24941 -20.21956 -20.21955  -1.12581
 Alpha  occ. eigenvalues --   -1.12581  -0.76551  -0.76540  -0.31102  -0.31101
 Alpha  occ. eigenvalues --   -0.28438  -0.28437  -0.26720  -0.26462  -0.10606
 Alpha  occ. eigenvalues --   -0.10605  -0.08065  -0.08064   0.42651
 Alpha virt. eigenvalues --    0.51319   1.06025   1.06589   1.09713   1.09728
 Alpha virt. eigenvalues --    1.11070   1.11082   1.14141   1.14735   1.18394
 Alpha virt. eigenvalues --    1.18431   1.19586   1.19627   1.32629   1.32633

  Beta  occ. eigenvalues --  -20.19093 -20.19093 -20.16805 -20.16805  -0.96214
  Beta  occ. eigenvalues --   -0.96212  -0.57353  -0.57321  -0.17211  -0.17197
  Beta  occ. eigenvalues --   -0.11458  -0.11259  -0.04282  -0.04281   0.24234
  Beta virt. eigenvalues --    0.32318   0.52331   0.52335   0.76889   0.77199
  Beta virt. eigenvalues --    1.14768   1.15132   1.17275   1.17284   1.17879
  Beta virt. eigenvalues --    1.18185   1.19345   1.19350   1.26418   1.26437

 Mulliken charges and spin densities:
               1          2
     1  O   -0.404006   1.096946
     2  O   -0.595994   0.903054
     3  O   -0.595994   0.903054
     4  O   -0.404006   1.096946
 Sum of Mulliken charges =  -2.00000   4.00000

 Dipole moment (field-independent basis, Debye):
    X=             -0.0000    Y=              0.0000    Z=              0.0000  Tot=              0.0000
 Quadrupole moment (field-independent basis, Debye-Ang):
   XX=            -25.1317   YY=            -23.9669   ZZ=           -146.1948
   XY=             -0.0000   XZ=              0.0000   YZ=             -0.0000

 Normal termination of Gaussian 16 at Sat Jan  7 09:10:33 2023.
