 Gaussian 16, Revision A.03,
 Gaussian 16:  ES64L-G16RevA.03 25-Dec-2016

 ------------------------------------------------
 #p CCSD(T,MaxCyc=300)/cc-pVTZ Guess=Read SCF=XQC
 ------------------------------------------------

 ---------
 O2_O2_274
 ---------
 Symbolic Z-matrix:
 Charge = -2 Multiplicity = 5

                         Standard orientation:
 ---------------------------------------------------------------------
 Center     Atomic      Atomic             Coordinates (Angstroms)
 Number     Number       Type             X           Y           Z
 ---------------------------------------------------------------------
      1          8           0        0.000000    0.000000    2.732301
      2          8           0        0.000000    0.000000    4.084681
      3          8           0        0.000000    0.000000   -4.084681
      4          8           0        0.000000    0.000000   -2.732301
 ---------------------------------------------------------------------

 SCF Done:  E(UHF) =  -298.770832817     A.U. after    9 cycles
 E2 =    -0.1269126368D+01 EUMP2 =    -0.30003995918528D+03
 CCSD(T)
 CCSD(T)= -0.29995141466D+03

 Unable to determine electronic state:  an orbital has unidentified symmetry.
 Alpha  occ. eigenvalues --  -20.25149 -20.25149 -20.22268 -20.22268  -1.12843
 Alpha  occ. eigenvalues --   -1.12842  -0.76825  -0.76816  -0.31354  -0.31354
 Alpha  occ. eigenvalues --   -0.28695  -0.28695  -0.26991  -0.26764  -0.10882
 Alpha  occ. eigenvalues --   -0.10881  -0.08335  -0.08335   0.42545
 Alpha virt. eigenvalues --    0.50818   1.05850   1.06144   1.09453   1.09462
 Alpha virt. eigenvalues --    1.10811   1.10818   1.13928   1.14327   1.18129
 Alpha virt. eigenvalues --    1.18154   1.19322   1.19348   1.32372   1.32375

  Beta  occ. eigenvalues --  -20.19309 -20.19309 -20.17102 -20.17102  -0.96470
  Beta  occ. eigenvalues --   -0.96468  -0.57617  -0.57589  -0.17477  -0.17469
  Beta  occ. eigenvalues --   -0.11713  -0.11534  -0.04532  -0.04532   0.24116
  Beta virt. eigenvalues --    0.31913   0.52057   0.52059   0.76671   0.76827
  Beta virt. eigenvalues --    1.14576   1.14763   1.17014   1.17019   1.17645
  Beta virt. eigenvalues --    1.17784   1.19092   1.19094   1.26155   1.26164

 Mulliken charges and spin densities:
               1          2
     1  O   -0.407825   1.093974
     2  O   -0.592175   0.906026
     3  O   -0.592175   0.906026
     4  O   -0.407825   1.093974
 Sum of Mulliken charges =  -2.00000   4.00000

 Dipole moment (field-independent basis, Debye):
    X=             -0.0000    Y=              0.0000    Z=              0.0000  Tot=              0.0000
 Quadrupole moment (field-independent basis, Debye-Ang):
   XX=            -25.1301   YY=            -23.9655   ZZ=           -153.4252
   XY=             -0.0000   XZ=              0.0000   YZ=             -0.0000

 Normal termination of Gaussian 16 at Sat Jan  7 09:36:13 2023.
