 Gaussian 16, Revision A.03,
 Gaussian 16:  ES64L-G16RevA.03 25-Dec-2016

 ------------------------------------------------
 #p CCSD(T,MaxCyc=300)/cc-pVTZ Guess=Read SCF=XQC
 ------------------------------------------------

 ---------
 O2_O2_299
 ---------
 Symbolic Z-matrix:
 Charge = -2 Multiplicity = 5

                         Standard orientation:
 ---------------------------------------------------------------------
 Center     Atomic      Atomic             Coordinates (Angstroms)
 Number     Number       Type             X           Y           Z
 ---------------------------------------------------------------------
      1          8           0        0.000000    0.000000    2.909283
      2          8           0        0.000000    0.000000    4.261664
      3          8           0        0.000000    0.000000   -4.261664
      4          8           0        0.000000    0.000000   -2.909283
 ---------------------------------------------------------------------

 SCF Done:  E(UHF) =  -298.772492908     A.U. after   13 cycles
 E2 =    -0.1289875610D+01 EUMP2 =    -0.30006236851784D+03
 CCSD(T)
 CCSD(T)= -0.29995670227D+03

 Unable to determine electronic state:  an orbital has unidentified symmetry.
 Alpha  occ. eigenvalues --  -20.25464 -20.25464 -20.22730 -20.22729  -1.13226
 Alpha  occ. eigenvalues --   -1.13226  -0.77225  -0.77218  -0.31726  -0.31726
 Alpha  occ. eigenvalues --   -0.29076  -0.29075  -0.27380  -0.27191  -0.11287
 Alpha  occ. eigenvalues --   -0.11287  -0.08732  -0.08731   0.42371
 Alpha virt. eigenvalues --    0.50141   1.05502   1.05606   1.09073   1.09077
 Alpha virt. eigenvalues --    1.10431   1.10434   1.13560   1.13815   1.17740
 Alpha virt. eigenvalues --    1.17755   1.18933   1.18949   1.31995   1.31996

  Beta  occ. eigenvalues --  -20.19641 -20.19641 -20.17541 -20.17541  -0.96852
  Beta  occ. eigenvalues --   -0.96851  -0.58007  -0.57984  -0.17872  -0.17869
  Beta  occ. eigenvalues --   -0.12091  -0.11938  -0.04900  -0.04900   0.23932
  Beta virt. eigenvalues --    0.31325   0.51654   0.51655   0.76299   0.76347
  Beta virt. eigenvalues --    1.14222   1.14282   1.16631   1.16633   1.17254
  Beta virt. eigenvalues --    1.17292   1.18719   1.18719   1.25768   1.25771

 Mulliken charges and spin densities:
               1          2
     1  O   -0.413322   1.089567
     2  O   -0.586678   0.910433
     3  O   -0.586678   0.910433
     4  O   -0.413322   1.089567
 Sum of Mulliken charges =  -2.00000   4.00000

 Dipole moment (field-independent basis, Debye):
    X=             -0.0000    Y=              0.0000    Z=              0.0000  Tot=              0.0000
 Quadrupole moment (field-independent basis, Debye-Ang):
   XX=            -25.1282   YY=            -23.9643   ZZ=           -165.2031
   XY=             -0.0000   XZ=              0.0000   YZ=             -0.0000

 Normal termination of Gaussian 16 at Sat Jan  7 10:14:16 2023.
