 Gaussian 16, Revision A.03,
 Gaussian 16:  ES64L-G16RevA.03 25-Dec-2016

 ------------------------------------------------
 #p CCSD(T,MaxCyc=300)/cc-pVTZ Guess=Read SCF=XQC
 ------------------------------------------------

 ---------
 O2_O2_161
 ---------
 Symbolic Z-matrix:
 Charge = -2 Multiplicity = 5

                         Standard orientation:
 ---------------------------------------------------------------------
 Center     Atomic      Atomic             Coordinates (Angstroms)
 Number     Number       Type             X           Y           Z
 ---------------------------------------------------------------------
      1          8           0        0.000000    0.000000    1.932342
      2          8           0        0.000000    0.000000    3.284722
      3          8           0        0.000000    0.000000   -3.284722
      4          8           0        0.000000    0.000000   -1.932342
 ---------------------------------------------------------------------

 SCF Done:  E(UHF) =  -298.776053113     A.U. after   16 cycles
 E2 =    -0.1143254250D+01 EUMP2 =    -0.29991930736352D+03
 CCSD(T)
 CCSD(T)= -0.29991761050D+03

 Unable to determine electronic state:  an orbital has unidentified symmetry.
 Alpha  occ. eigenvalues --  -20.24155 -20.24154 -20.19905 -20.19905  -1.10842
 Alpha  occ. eigenvalues --   -1.10833  -0.74621  -0.74531  -0.29538  -0.29510
 Alpha  occ. eigenvalues --   -0.26832  -0.26806  -0.24567  -0.23695  -0.08821
 Alpha  occ. eigenvalues --   -0.08780  -0.06315  -0.06265   0.42443
 Alpha virt. eigenvalues --    0.57231   1.03014   1.10971   1.11253   1.11871
 Alpha virt. eigenvalues --    1.12636   1.13158   1.13544   1.19772   1.20930
 Alpha virt. eigenvalues --    1.21087   1.22349   1.26565   1.34396   1.34456

  Beta  occ. eigenvalues --  -20.18401 -20.18401 -20.14915 -20.14915  -0.94830
  Beta  occ. eigenvalues --   -0.94814  -0.55755  -0.55597  -0.15722  -0.15396
  Beta  occ. eigenvalues --   -0.09931  -0.09476  -0.02712  -0.02680   0.24670
  Beta virt. eigenvalues --    0.35263   0.54080   0.54312   0.76495   0.81568
  Beta virt. eigenvalues --    1.11781   1.17631   1.18505   1.18824   1.19301
  Beta virt. eigenvalues --    1.20904   1.21192   1.27757   1.29051   1.29978

 Mulliken charges and spin densities:
               1          2
     1  O   -0.376491   1.120695
     2  O   -0.623509   0.879305
     3  O   -0.623509   0.879305
     4  O   -0.376491   1.120695
 Sum of Mulliken charges =  -2.00000   4.00000

 Dipole moment (field-independent basis, Debye):
    X=             -0.0000    Y=              0.0000    Z=              0.0000  Tot=              0.0000
 Quadrupole moment (field-independent basis, Debye-Ang):
   XX=            -25.1602   YY=            -24.0000   ZZ=           -106.5905
   XY=             -0.0000   XZ=              0.0000   YZ=             -0.0000

 Normal termination of Gaussian 16 at Sat Jan  7 06:40:37 2023.
