 Gaussian 16, Revision A.03,
 Gaussian 16:  ES64L-G16RevA.03 25-Dec-2016

 ------------------------------------------------
 #p CCSD(T,MaxCyc=300)/cc-pVTZ Guess=Read SCF=XQC
 ------------------------------------------------

 ---------
 O2_O2_235
 ---------
 Symbolic Z-matrix:
 Charge = -2 Multiplicity = 5

                         Standard orientation:
 ---------------------------------------------------------------------
 Center     Atomic      Atomic             Coordinates (Angstroms)
 Number     Number       Type             X           Y           Z
 ---------------------------------------------------------------------
      1          8           0        0.000000    0.000000    2.456209
      2          8           0        0.000000    0.000000    3.808589
      3          8           0        0.000000    0.000000   -3.808589
      4          8           0        0.000000    0.000000   -2.456209
 ---------------------------------------------------------------------

 SCF Done:  E(UHF) =  -298.768940789     A.U. after   10 cycles
 E2 =    -0.1233348995D+01 EUMP2 =    -0.30000228978398D+03
 CCSD(T)
 CCSD(T)= -0.29994176967D+03

 Unable to determine electronic state:  an orbital has unidentified symmetry.
 Alpha  occ. eigenvalues --  -20.24653 -20.24652 -20.21489 -20.21488  -1.12188
 Alpha  occ. eigenvalues --   -1.12187  -0.76134  -0.76118  -0.30726  -0.30725
 Alpha  occ. eigenvalues --   -0.28054  -0.28052  -0.26297  -0.25977  -0.10193
 Alpha  occ. eigenvalues --   -0.10191  -0.07661  -0.07658   0.42777
 Alpha virt. eigenvalues --    0.52182   1.06110   1.07451   1.10101   1.10139
 Alpha virt. eigenvalues --    1.11458   1.11489   1.14345   1.15553   1.18786
 Alpha virt. eigenvalues --    1.18869   1.19979   1.20068   1.33021   1.33026

  Beta  occ. eigenvalues --  -20.18797 -20.18797 -20.16364 -20.16364  -0.95842
  Beta  occ. eigenvalues --   -0.95839  -0.56962  -0.56921  -0.16822  -0.16790
  Beta  occ. eigenvalues --   -0.11082  -0.10846  -0.03908  -0.03906   0.24397
  Beta virt. eigenvalues --    0.32936   0.52742   0.52755   0.77117   0.77873
  Beta virt. eigenvalues --    1.14902   1.15770   1.17663   1.17690   1.18139
  Beta virt. eigenvalues --    1.19021   1.19724   1.19738   1.26807   1.26868

 Mulliken charges and spin densities:
               1          2
     1  O   -0.398102   1.101433
     2  O   -0.601898   0.898567
     3  O   -0.601898   0.898567
     4  O   -0.398102   1.101433
 Sum of Mulliken charges =  -2.00000   4.00000

 Dipole moment (field-independent basis, Debye):
    X=             -0.0000    Y=              0.0000    Z=              0.0000  Tot=              0.0000
 Quadrupole moment (field-independent basis, Debye-Ang):
   XX=            -25.1350   YY=            -23.9702   ZZ=           -136.2015
   XY=             -0.0000   XZ=              0.0000   YZ=             -0.0000

 Normal termination of Gaussian 16 at Sat Jan  7 08:33:45 2023.
