 Gaussian 16, Revision A.03,
 Gaussian 16:  ES64L-G16RevA.03 25-Dec-2016

 ------------------------------------------------
 #p CCSD(T,MaxCyc=300)/cc-pVTZ Guess=Read SCF=XQC
 ------------------------------------------------

 ---------
 O2_O2_169
 ---------
 Symbolic Z-matrix:
 Charge = -2 Multiplicity = 5

                         Standard orientation:
 ---------------------------------------------------------------------
 Center     Atomic      Atomic             Coordinates (Angstroms)
 Number     Number       Type             X           Y           Z
 ---------------------------------------------------------------------
      1          8           0        0.000000    0.000000    1.988976
      2          8           0        0.000000    0.000000    3.341356
      3          8           0        0.000000    0.000000   -3.341356
      4          8           0        0.000000    0.000000   -1.988976
 ---------------------------------------------------------------------

 SCF Done:  E(UHF) =  -298.774312338     A.U. after   16 cycles
 E2 =    -0.1153973954D+01 EUMP2 =    -0.29992828629168D+03
 CCSD(T)
 CCSD(T)= -0.29992055846D+03

 Unable to determine electronic state:  an orbital has unidentified symmetry.
 Alpha  occ. eigenvalues --  -20.24176 -20.24175 -20.20101 -20.20101  -1.11003
 Alpha  occ. eigenvalues --   -1.10996  -0.74807  -0.74735  -0.29673  -0.29652
 Alpha  occ. eigenvalues --   -0.26970  -0.26950  -0.24787  -0.24022  -0.08982
 Alpha  occ. eigenvalues --   -0.08951  -0.06474  -0.06435   0.42563
 Alpha virt. eigenvalues --    0.56460   1.03549   1.10732   1.11152   1.11626
 Alpha virt. eigenvalues --    1.12527   1.12927   1.13664   1.19718   1.20719
 Alpha virt. eigenvalues --    1.20884   1.21967   1.24179   1.34233   1.34277

  Beta  occ. eigenvalues --  -20.18402 -20.18401 -20.15093 -20.15092  -0.94934
  Beta  occ. eigenvalues --   -0.94921  -0.55892  -0.55759  -0.15835  -0.15572
  Beta  occ. eigenvalues --   -0.10060  -0.09642  -0.02851  -0.02826   0.24657
  Beta virt. eigenvalues --    0.34961   0.53930   0.54108   0.76593   0.81088
  Beta virt. eigenvalues --    1.12345   1.17499   1.18429   1.18714   1.19082
  Beta virt. eigenvalues --    1.20782   1.21002   1.27708   1.27736   1.28685

 Mulliken charges and spin densities:
               1          2
     1  O   -0.379098   1.117899
     2  O   -0.620902   0.882101
     3  O   -0.620902   0.882101
     4  O   -0.379098   1.117899
 Sum of Mulliken charges =  -2.00000   4.00000

 Dipole moment (field-independent basis, Debye):
    X=             -0.0000    Y=              0.0000    Z=             -0.0000  Tot=              0.0000
 Quadrupole moment (field-independent basis, Debye-Ang):
   XX=            -25.1561   YY=            -23.9954   ZZ=           -109.6393
   XY=             -0.0000   XZ=              0.0000   YZ=             -0.0000

 Normal termination of Gaussian 16 at Sat Jan  7 06:52:23 2023.
