 Gaussian 16, Revision A.03,
 Gaussian 16:  ES64L-G16RevA.03 25-Dec-2016

 ------------------------------------------------
 #p CCSD(T,MaxCyc=300)/cc-pVTZ Guess=Read SCF=XQC
 ------------------------------------------------

 ---------
 O2_O2_183
 ---------
 Symbolic Z-matrix:
 Charge = -2 Multiplicity = 5

                         Standard orientation:
 ---------------------------------------------------------------------
 Center     Atomic      Atomic             Coordinates (Angstroms)
 Number     Number       Type             X           Y           Z
 ---------------------------------------------------------------------
      1          8           0        0.000000    0.000000    2.088086
      2          8           0        0.000000    0.000000    3.440466
      3          8           0        0.000000    0.000000   -3.440466
      4          8           0        0.000000    0.000000   -2.088086
 ---------------------------------------------------------------------

 SCF Done:  E(UHF) =  -298.771752331     A.U. after   12 cycles
 E2 =    -0.1172761653D+01 EUMP2 =    -0.29994451398340D+03
 CCSD(T)
 CCSD(T)= -0.29992555263D+03

 Unable to determine electronic state:  an orbital has unidentified symmetry.
 Alpha  occ. eigenvalues --  -20.24216 -20.24215 -20.20412 -20.20412  -1.11264
 Alpha  occ. eigenvalues --   -1.11260  -0.75111  -0.75060  -0.29892  -0.29879
 Alpha  occ. eigenvalues --   -0.27197  -0.27185  -0.25152  -0.24536  -0.09245
 Alpha  occ. eigenvalues --   -0.09226  -0.06731  -0.06707   0.42721
 Alpha virt. eigenvalues --    0.55247   1.04499   1.10174   1.10957   1.11247
 Alpha virt. eigenvalues --    1.12323   1.12566   1.13914   1.19581   1.20189
 Alpha virt. eigenvalues --    1.20760   1.20881   1.21418   1.33966   1.33987

  Beta  occ. eigenvalues --  -20.18409 -20.18408 -20.15372 -20.15372  -0.95102
  Beta  occ. eigenvalues --   -0.95093  -0.56112  -0.56014  -0.16023  -0.15846
  Beta  occ. eigenvalues --   -0.10269  -0.09904  -0.03073  -0.03058   0.24634
  Beta virt. eigenvalues --    0.34485   0.53679   0.53788   0.76826   0.80270
  Beta virt. eigenvalues --    1.13339   1.17229   1.18341   1.18513   1.18739
  Beta virt. eigenvalues --    1.20570   1.20703   1.24555   1.27582   1.28161

 Mulliken charges and spin densities:
               1          2
     1  O   -0.383431   1.113434
     2  O   -0.616569   0.886566
     3  O   -0.616569   0.886566
     4  O   -0.383431   1.113434
 Sum of Mulliken charges =  -2.00000   4.00000

 Dipole moment (field-independent basis, Debye):
    X=             -0.0000    Y=              0.0000    Z=              0.0000  Tot=              0.0000
 Quadrupole moment (field-independent basis, Debye-Ang):
   XX=            -25.1498   YY=            -23.9880   ZZ=           -115.0627
   XY=             -0.0000   XZ=              0.0000   YZ=             -0.0000

 Normal termination of Gaussian 16 at Sat Jan  7 07:14:11 2023.
