 Gaussian 16, Revision A.03,
 Gaussian 16:  ES64L-G16RevA.03 25-Dec-2016

 ------------------------------------------------
 #p CCSD(T,MaxCyc=300)/cc-pVTZ Guess=Read SCF=XQC
 ------------------------------------------------

 --------
 O2_O2_84
 --------
 Symbolic Z-matrix:
 Charge = -2 Multiplicity = 5

                         Standard orientation:
 ---------------------------------------------------------------------
 Center     Atomic      Atomic             Coordinates (Angstroms)
 Number     Number       Type             X           Y           Z
 ---------------------------------------------------------------------
      1          8           0        0.000000    0.000000    1.387236
      2          8           0        0.000000    0.000000    2.739616
      3          8           0        0.000000    0.000000   -2.739616
      4          8           0        0.000000    0.000000   -1.387236
 ---------------------------------------------------------------------

 SCF Done:  E(UHF) =  -298.781500397     A.U. after   14 cycles
 E2 =    -0.1073564248D+01 EUMP2 =    -0.29985506464580D+03
 CCSD(T)
 CCSD(T)= -0.29988393374D+03

 Unable to determine electronic state:  an orbital has unidentified symmetry.
 Alpha  occ. eigenvalues --  -20.20841 -20.20839 -20.16819 -20.16819  -1.07896
 Alpha  occ. eigenvalues --   -1.07759  -0.71901  -0.71084  -0.26276  -0.25991
 Alpha  occ. eigenvalues --   -0.24004  -0.23678  -0.22611  -0.19094  -0.06231
 Alpha  occ. eigenvalues --   -0.05726  -0.03373  -0.02883   0.41862
 Alpha virt. eigenvalues --    0.64763   1.10761   1.12317   1.12879   1.13386
 Alpha virt. eigenvalues --    1.13514   1.15276   1.16821   1.19526   1.21065
 Alpha virt. eigenvalues --    1.29708   1.30792   1.36853   1.37401   1.66107

  Beta  occ. eigenvalues --  -20.15103 -20.15102 -20.11604 -20.11604  -0.91580
  Beta  occ. eigenvalues --   -0.91374  -0.52950  -0.51677  -0.13354  -0.10837
  Beta  occ. eigenvalues --   -0.07295  -0.06268   0.00669   0.01142   0.25493
  Beta virt. eigenvalues --    0.42122   0.56287   0.57924   0.80851   0.86993
  Beta virt. eigenvalues --    1.18004   1.18557   1.20605   1.21525   1.22327
  Beta virt. eigenvalues --    1.22340   1.25186   1.27673   1.31034   1.37985

 Mulliken charges and spin densities:
               1          2
     1  O   -0.375367   1.053241
     2  O   -0.624633   0.946759
     3  O   -0.624633   0.946759
     4  O   -0.375367   1.053241
 Sum of Mulliken charges =  -2.00000   4.00000

 Dipole moment (field-independent basis, Debye):
    X=             -0.0000    Y=             -0.0000    Z=             -0.0000  Tot=              0.0000
 Quadrupole moment (field-independent basis, Debye-Ang):
   XX=            -25.2275   YY=            -24.0357   ZZ=            -80.2943
   XY=             -0.0000   XZ=              0.0000   YZ=             -0.0000

 Normal termination of Gaussian 16 at Sat Jan  7 04:49:13 2023.
