 Gaussian 16, Revision A.03,
 Gaussian 16:  ES64L-G16RevA.03 25-Dec-2016

 ------------------------------------------------
 #p CCSD(T,MaxCyc=300)/cc-pVTZ Guess=Read SCF=XQC
 ------------------------------------------------

 --------
 O2_O2_23
 --------
 Symbolic Z-matrix:
 Charge = -2 Multiplicity = 5

                         Standard orientation:
 ---------------------------------------------------------------------
 Center     Atomic      Atomic             Coordinates (Angstroms)
 Number     Number       Type             X           Y           Z
 ---------------------------------------------------------------------
      1          8           0        0.000000    0.000000    0.955399
      2          8           0        0.000000    0.000000    2.307779
      3          8           0        0.000000    0.000000   -2.307779
      4          8           0        0.000000    0.000000   -0.955399
 ---------------------------------------------------------------------

 SCF Done:  E(UHF) =  -298.765069005     A.U. after   13 cycles
 E2 =    -0.1009866095D+01 EUMP2 =    -0.29977493509982D+03
 CCSD(T)
 CCSD(T)= -0.29982427216D+03

 Unable to determine electronic state:  an orbital has unidentified symmetry.
 Alpha  occ. eigenvalues --  -20.14587 -20.14579 -20.12215 -20.12215  -1.04878
 Alpha  occ. eigenvalues --   -1.03431  -0.71146  -0.64996  -0.23876  -0.22865
 Alpha  occ. eigenvalues --   -0.21171  -0.21020  -0.18629  -0.10525  -0.03427
 Alpha  occ. eigenvalues --   -0.00354   0.00311   0.02570   0.41314
 Alpha virt. eigenvalues --    0.74943   1.09969   1.12455   1.15898   1.16653
 Alpha virt. eigenvalues --    1.18111   1.20412   1.22276   1.24244   1.38613
 Alpha virt. eigenvalues --    1.39283   1.40917   1.41379   1.48133   1.91445

  Beta  occ. eigenvalues --  -20.08896 -20.08892 -20.06547 -20.06546  -0.87611
  Beta  occ. eigenvalues --   -0.85584  -0.53239  -0.44444  -0.13210  -0.04681
  Beta  occ. eigenvalues --   -0.02284  -0.00287   0.02112   0.06269   0.24465
  Beta virt. eigenvalues --    0.54169   0.58909   0.64115   0.86768   0.93293
  Beta virt. eigenvalues --    1.20713   1.21410   1.24448   1.25340   1.25354
  Beta virt. eigenvalues --    1.30184   1.31756   1.35451   1.40623   1.41393

 Mulliken charges and spin densities:
               1          2
     1  O   -0.353159   0.907980
     2  O   -0.646841   1.092020
     3  O   -0.646841   1.092020
     4  O   -0.353159   0.907980
 Sum of Mulliken charges =  -2.00000   4.00000

 Dipole moment (field-independent basis, Debye):
    X=             -0.0000    Y=              0.0000    Z=             -0.0000  Tot=              0.0000
 Quadrupole moment (field-independent basis, Debye-Ang):
   XX=            -25.2859   YY=            -23.9578   ZZ=            -66.3423
   XY=             -0.0000   XZ=              0.0000   YZ=             -0.0000

 Normal termination of Gaussian 16 at Sat Jan  7 03:24:51 2023.
