 Gaussian 16, Revision A.03,
 Gaussian 16:  ES64L-G16RevA.03 25-Dec-2016

 ------------------------------------------------
 #p CCSD(T,MaxCyc=300)/cc-pVTZ Guess=Read SCF=XQC
 ------------------------------------------------

 --------
 O2_O2_83
 --------
 Symbolic Z-matrix:
 Charge = -2 Multiplicity = 5

                         Standard orientation:
 ---------------------------------------------------------------------
 Center     Atomic      Atomic             Coordinates (Angstroms)
 Number     Number       Type             X           Y           Z
 ---------------------------------------------------------------------
      1          8           0        0.000000    0.000000    1.380157
      2          8           0        0.000000    0.000000    2.732537
      3          8           0        0.000000    0.000000   -2.732537
      4          8           0        0.000000    0.000000   -1.380157
 ---------------------------------------------------------------------

 SCF Done:  E(UHF) =  -298.781409279     A.U. after   14 cycles
 E2 =    -0.1072751214D+01 EUMP2 =    -0.29985416049278D+03
 CCSD(T)
 CCSD(T)= -0.29988338013D+03

 Unable to determine electronic state:  an orbital has unidentified symmetry.
 Alpha  occ. eigenvalues --  -20.20750 -20.20748 -20.16764 -20.16764  -1.07842
 Alpha  occ. eigenvalues --   -1.07700  -0.71859  -0.71016  -0.26214  -0.25921
 Alpha  occ. eigenvalues --   -0.23949  -0.23612  -0.22598  -0.19009  -0.06181
 Alpha  occ. eigenvalues --   -0.05658  -0.03319  -0.02815   0.41870
 Alpha virt. eigenvalues --    0.64858   1.10740   1.12338   1.13267   1.13395
 Alpha virt. eigenvalues --    1.13543   1.15320   1.16878   1.19527   1.21079
 Alpha virt. eigenvalues --    1.29892   1.30965   1.36892   1.37450   1.66684

  Beta  occ. eigenvalues --  -20.15011 -20.15009 -20.11541 -20.11541  -0.91509
  Beta  occ. eigenvalues --   -0.91295  -0.52905  -0.51593  -0.13318  -0.10731
  Beta  occ. eigenvalues --   -0.07251  -0.06214   0.00720   0.01211   0.25510
  Beta virt. eigenvalues --    0.42276   0.56330   0.58000   0.80955   0.87080
  Beta virt. eigenvalues --    1.18179   1.18574   1.20644   1.21721   1.22340
  Beta virt. eigenvalues --    1.22383   1.25263   1.27680   1.31063   1.38171

 Mulliken charges and spin densities:
               1          2
     1  O   -0.375556   1.050957
     2  O   -0.624444   0.949043
     3  O   -0.624444   0.949043
     4  O   -0.375556   1.050957
 Sum of Mulliken charges =  -2.00000   4.00000

 Dipole moment (field-independent basis, Debye):
    X=             -0.0000    Y=              0.0000    Z=             -0.0000  Tot=              0.0000
 Quadrupole moment (field-independent basis, Debye-Ang):
   XX=            -25.2290   YY=            -24.0355   ZZ=            -80.0099
   XY=             -0.0000   XZ=              0.0000   YZ=             -0.0000

 4311\PMP3-0=-299.813651\MP4SDQ=-299.8018577\CCSD=-299.7976947\CCSD(T)=
 Normal termination of Gaussian 16 at Sat Jan  7 04:47:50 2023.
