 Gaussian 16, Revision A.03,
 Gaussian 16:  ES64L-G16RevA.03 25-Dec-2016

 ------------------------------------------------
 #p CCSD(T,MaxCyc=300)/cc-pVTZ Guess=Read SCF=XQC
 ------------------------------------------------

 ---------
 O2_O2_218
 ---------
 Symbolic Z-matrix:
 Charge = -2 Multiplicity = 5

                         Standard orientation:
 ---------------------------------------------------------------------
 Center     Atomic      Atomic             Coordinates (Angstroms)
 Number     Number       Type             X           Y           Z
 ---------------------------------------------------------------------
      1          8           0        0.000000    0.000000    2.335861
      2          8           0        0.000000    0.000000    3.688241
      3          8           0        0.000000    0.000000   -3.688241
      4          8           0        0.000000    0.000000   -2.335861
 ---------------------------------------------------------------------

 SCF Done:  E(UHF) =  -298.768870687     A.U. after   11 cycles
 E2 =    -0.1215471070D+01 EUMP2 =    -0.29998434175703D+03
 CCSD(T)
 CCSD(T)= -0.29993691212D+03

 Unable to determine electronic state:  an orbital has unidentified symmetry.
 Alpha  occ. eigenvalues --  -20.24463 -20.24463 -20.21138 -20.21138  -1.11889
 Alpha  occ. eigenvalues --   -1.11887  -0.75810  -0.75788  -0.30446  -0.30443
 Alpha  occ. eigenvalues --   -0.27768  -0.27764  -0.25955  -0.25569  -0.09883
 Alpha  occ. eigenvalues --   -0.09877  -0.07356  -0.07349   0.42830
 Alpha virt. eigenvalues --    0.52976   1.05936   1.08289   1.10393   1.10467
 Alpha virt. eigenvalues --    1.11750   1.11812   1.14355   1.16512   1.19074
 Alpha virt. eigenvalues --    1.19233   1.20265   1.20438   1.33324   1.33328

  Beta  occ. eigenvalues --  -20.18611 -20.18611 -20.16036 -20.16036  -0.95576
  Beta  occ. eigenvalues --   -0.95572  -0.56674  -0.56621  -0.16540  -0.16482
  Beta  occ. eigenvalues --   -0.10805  -0.10536  -0.03629  -0.03625   0.24501
  Beta virt. eigenvalues --    0.33419   0.53051   0.53078   0.77169   0.78515
  Beta virt. eigenvalues --    1.14776   1.16295   1.17953   1.18009   1.18243
  Beta virt. eigenvalues --    1.20008   1.20040   1.20046   1.27091   1.27225

 Mulliken charges and spin densities:
               1          2
     1  O   -0.393491   1.104913
     2  O   -0.606509   0.895087
     3  O   -0.606509   0.895087
     4  O   -0.393491   1.104913
 Sum of Mulliken charges =  -2.00000   4.00000

 Dipole moment (field-independent basis, Debye):
    X=             -0.0000    Y=              0.0000    Z=             -0.0000  Tot=              0.0000
 Quadrupole moment (field-independent basis, Debye-Ang):
   XX=            -25.1385   YY=            -23.9742   ZZ=           -129.0921
   XY=             -0.0000   XZ=              0.0000   YZ=             -0.0000

 Normal termination of Gaussian 16 at Sat Jan  7 08:07:50 2023.
