 Gaussian 16, Revision A.03,
 Gaussian 16:  ES64L-G16RevA.03 25-Dec-2016

 ------------------------------------------------
 #p CCSD(T,MaxCyc=300)/cc-pVTZ Guess=Read SCF=XQC
 ------------------------------------------------

 ---------
 O2_O2_200
 ---------
 Symbolic Z-matrix:
 Charge = -2 Multiplicity = 5

                         Standard orientation:
 ---------------------------------------------------------------------
 Center     Atomic      Atomic             Coordinates (Angstroms)
 Number     Number       Type             X           Y           Z
 ---------------------------------------------------------------------
      1          8           0        0.000000    0.000000    2.208433
      2          8           0        0.000000    0.000000    3.560814
      3          8           0        0.000000    0.000000   -3.560814
      4          8           0        0.000000    0.000000   -2.208433
 ---------------------------------------------------------------------

 SCF Done:  E(UHF) =  -298.769743060     A.U. after   12 cycles
 E2 =    -0.1194491428D+01 EUMP2 =    -0.29996423448803D+03
 CCSD(T)
 CCSD(T)= -0.29993128974D+03

 Unable to determine electronic state:  an orbital has unidentified symmetry.
 Alpha  occ. eigenvalues --  -20.24307 -20.24306 -20.20766 -20.20766  -1.11569
 Alpha  occ. eigenvalues --   -1.11566  -0.75457  -0.75424  -0.30157  -0.30150
 Alpha  occ. eigenvalues --   -0.27470  -0.27463  -0.25560  -0.25077  -0.09554
 Alpha  occ. eigenvalues --   -0.09544  -0.07033  -0.07021   0.42820
 Alpha virt. eigenvalues --    0.54018   1.05402   1.09293   1.10694   1.10846
 Alpha virt. eigenvalues --    1.12053   1.12181   1.14194   1.18201   1.19357
 Alpha virt. eigenvalues --    1.19677   1.20544   1.20891   1.33653   1.33658

  Beta  occ. eigenvalues --  -20.18471 -20.18470 -20.15694 -20.15694  -0.95318
  Beta  occ. eigenvalues --   -0.95312  -0.56379  -0.56308  -0.16262  -0.16156
  Beta  occ. eigenvalues --   -0.10523  -0.10210  -0.03339  -0.03331   0.24585
  Beta virt. eigenvalues --    0.33953   0.53377   0.53434   0.77067   0.79350
  Beta virt. eigenvalues --    1.14267   1.16820   1.18251   1.18289   1.18369
  Beta virt. eigenvalues --    1.20303   1.20372   1.21844   1.27367   1.27659

 Mulliken charges and spin densities:
               1          2
     1  O   -0.388415   1.108943
     2  O   -0.611585   0.891057
     3  O   -0.611585   0.891057
     4  O   -0.388415   1.108943
 Sum of Mulliken charges =  -2.00000   4.00000

 Dipole moment (field-independent basis, Debye):
    X=             -0.0000    Y=              0.0000    Z=              0.0000  Tot=              0.0000
 Quadrupole moment (field-independent basis, Debye-Ang):
   XX=            -25.1435   YY=            -23.9803   ZZ=           -121.7868
   XY=             -0.0000   XZ=              0.0000   YZ=             -0.0000

 Normal termination of Gaussian 16 at Sat Jan  7 07:40:39 2023.
