 Gaussian 16, Revision A.03,
 Gaussian 16:  ES64L-G16RevA.03 25-Dec-2016

 ------------------------------------------------
 #p CCSD(T,MaxCyc=300)/cc-pVTZ Guess=Read SCF=XQC
 ------------------------------------------------

 ---------
 O2_O2_150
 ---------
 Symbolic Z-matrix:
 Charge = -2 Multiplicity = 5

                         Standard orientation:
 ---------------------------------------------------------------------
 Center     Atomic      Atomic             Coordinates (Angstroms)
 Number     Number       Type             X           Y           Z
 ---------------------------------------------------------------------
      1          8           0        0.000000    0.000000    1.854469
      2          8           0        0.000000    0.000000    3.206849
      3          8           0        0.000000    0.000000   -3.206849
      4          8           0        0.000000    0.000000   -1.854469
 ---------------------------------------------------------------------

 SCF Done:  E(UHF) =  -298.778554390     A.U. after   16 cycles
 E2 =    -0.1129119253D+01 EUMP2 =    -0.29990767364375D+03
 CCSD(T)
 CCSD(T)= -0.29991345066D+03

 Unable to determine electronic state:  an orbital has unidentified symmetry.
 Alpha  occ. eigenvalues --  -20.24104 -20.24103 -20.19600 -20.19599  -1.10596
 Alpha  occ. eigenvalues --   -1.10583  -0.74340  -0.74220  -0.29324  -0.29285
 Alpha  occ. eigenvalues --   -0.26619  -0.26581  -0.24253  -0.23205  -0.08576
 Alpha  occ. eigenvalues --   -0.08517  -0.06071  -0.06000   0.42254
 Alpha virt. eigenvalues --    0.58362   1.02437   1.11211   1.11380   1.12252
 Alpha virt. eigenvalues --    1.12776   1.13427   1.13518   1.19818   1.20961
 Alpha virt. eigenvalues --    1.21696   1.22980   1.30457   1.34650   1.34728

  Beta  occ. eigenvalues --  -20.18375 -20.18375 -20.14631 -20.14631  -0.94657
  Beta  occ. eigenvalues --   -0.94635  -0.55539  -0.55336  -0.15543  -0.15109
  Beta  occ. eigenvalues --   -0.09725  -0.09213  -0.02486  -0.02441   0.24696
  Beta virt. eigenvalues --    0.35733   0.54299   0.54628   0.76472   0.82234
  Beta virt. eigenvalues --    1.11151   1.17795   1.18644   1.18978   1.19639
  Beta virt. eigenvalues --    1.21081   1.21491   1.27795   1.29664   1.30692

 Mulliken charges and spin densities:
               1          2
     1  O   -0.372742   1.124401
     2  O   -0.627258   0.875599
     3  O   -0.627258   0.875599
     4  O   -0.372742   1.124401
 Sum of Mulliken charges =  -2.00000   4.00000

 Dipole moment (field-independent basis, Debye):
    X=             -0.0000    Y=              0.0000    Z=              0.0000  Tot=              0.0000
 Quadrupole moment (field-independent basis, Debye-Ang):
   XX=            -25.1662   YY=            -24.0063   ZZ=           -102.4760
   XY=             -0.0000   XZ=              0.0000   YZ=             -0.0000

 Normal termination of Gaussian 16 at Sat Jan  7 06:24:29 2023.
