 Gaussian 16, Revision A.03,
 Gaussian 16:  ES64L-G16RevA.03 25-Dec-2016

 ------------------------------------------------
 #p CCSD(T,MaxCyc=300)/cc-pVTZ Guess=Read SCF=XQC
 ------------------------------------------------

 --------
 O2_O2_99
 --------
 Symbolic Z-matrix:
 Charge = -2 Multiplicity = 5

                         Standard orientation:
 ---------------------------------------------------------------------
 Center     Atomic      Atomic             Coordinates (Angstroms)
 Number     Number       Type             X           Y           Z
 ---------------------------------------------------------------------
      1          8           0        0.000000    0.000000    1.493425
      2          8           0        0.000000    0.000000    2.845806
      3          8           0        0.000000    0.000000   -2.845806
      4          8           0        0.000000    0.000000   -1.493425
 ---------------------------------------------------------------------

 SCF Done:  E(UHF) =  -298.782795143     A.U. after   16 cycles
 E2 =    -0.1085029508D+01 EUMP2 =    -0.29986782465065D+03
 CCSD(T)
 CCSD(T)= -0.29989171836D+03

 Unable to determine electronic state:  an orbital has unidentified symmetry.
 Alpha  occ. eigenvalues --  -20.22187 -20.22185 -20.17558 -20.17558  -1.08695
 Alpha  occ. eigenvalues --   -1.08615  -0.72548  -0.72032  -0.27226  -0.27037
 Alpha  occ. eigenvalues --   -0.24823  -0.24620  -0.22887  -0.20260  -0.06932
 Alpha  occ. eigenvalues --   -0.06631  -0.04163  -0.03847   0.41761
 Alpha virt. eigenvalues --    0.63391   1.07576   1.11107   1.12004   1.13256
 Alpha virt. eigenvalues --    1.13513   1.14604   1.15962   1.19611   1.20935
 Alpha virt. eigenvalues --    1.27090   1.28337   1.36246   1.36659   1.57064

  Beta  occ. eigenvalues --  -20.16455 -20.16454 -20.12461 -20.12461  -0.92611
  Beta  occ. eigenvalues --   -0.92490  -0.53666  -0.52858  -0.13958  -0.12288
  Beta  occ. eigenvalues --   -0.07943  -0.07049  -0.00176   0.00086   0.25212
  Beta virt. eigenvalues --    0.39946   0.55683   0.56896   0.79313   0.85730
  Beta virt. eigenvalues --    1.14754   1.18384   1.20038   1.20061   1.21716
  Beta virt. eigenvalues --    1.22108   1.24042   1.27662   1.30705   1.35294

 Mulliken charges and spin densities:
               1          2
     1  O   -0.369060   1.089255
     2  O   -0.630940   0.910745
     3  O   -0.630940   0.910745
     4  O   -0.369060   1.089255
 Sum of Mulliken charges =  -2.00000   4.00000

 Dipole moment (field-independent basis, Debye):
    X=             -0.0000    Y=              0.0000    Z=             -0.0000  Tot=              0.0000
 Quadrupole moment (field-independent basis, Debye-Ang):
   XX=            -25.2081   YY=            -24.0365   ZZ=            -84.9141
   XY=             -0.0000   XZ=              0.0000   YZ=             -0.0000

 76003\PMP3-0=-299.826584\MP4SDQ=-299.804468\CCSD=-299.8023823\CCSD(T)=
 Normal termination of Gaussian 16 at Sat Jan  7 05:09:43 2023.
