 Gaussian 16, Revision A.03,
 Gaussian 16:  ES64L-G16RevA.03 25-Dec-2016

 ------------------------------------------------
 #p CCSD(T,MaxCyc=300)/cc-pVTZ Guess=Read SCF=XQC
 ------------------------------------------------

 -------
 O2_O2_4
 -------
 Symbolic Z-matrix:
 Charge = -2 Multiplicity = 5

                         Standard orientation:
 ---------------------------------------------------------------------
 Center     Atomic      Atomic             Coordinates (Angstroms)
 Number     Number       Type             X           Y           Z
 ---------------------------------------------------------------------
      1          8           0        0.000000    0.000000    0.820892
      2          8           0        0.000000    0.000000    2.173273
      3          8           0        0.000000    0.000000   -2.173273
      4          8           0        0.000000    0.000000   -0.820892
 ---------------------------------------------------------------------

 SCF Done:  E(UHF) =  -298.726879039     A.U. after   13 cycles
 E2 =    -0.9835764658D+00 EUMP2 =    -0.29971045550488D+03
 CCSD(T)
 CCSD(T)= -0.29976547519D+03

 Unable to determine electronic state:  an orbital has unidentified symmetry.
 Alpha  occ. eigenvalues --  -20.11929 -20.11913 -20.09729 -20.09729  -1.04563
 Alpha  occ. eigenvalues --   -1.01303  -0.73247  -0.61402  -0.25739  -0.22191
 Alpha  occ. eigenvalues --   -0.20820  -0.19039  -0.16098  -0.04915  -0.03141
 Alpha  occ. eigenvalues --    0.00378   0.03825   0.05549   0.39720
 Alpha virt. eigenvalues --    0.83053   1.10395   1.11918   1.17559   1.18633
 Alpha virt. eigenvalues --    1.19234   1.21823   1.25300   1.26925   1.38438
 Alpha virt. eigenvalues --    1.39156   1.43827   1.44110   1.54989   1.92893

  Beta  occ. eigenvalues --  -20.06455 -20.06445 -20.03859 -20.03859  -0.87599
  Beta  occ. eigenvalues --   -0.82866  -0.56388  -0.40494  -0.13894  -0.04085
  Beta  occ. eigenvalues --   -0.00374   0.00575   0.07267   0.08898   0.22536
  Beta virt. eigenvalues --    0.59634   0.59947   0.67065   0.88238   0.96353
  Beta virt. eigenvalues --    1.20462   1.24150   1.25761   1.26697   1.27057
  Beta virt. eigenvalues --    1.32249   1.34899   1.38194   1.40894   1.41354

 Mulliken charges and spin densities:
               1          2
     1  O   -0.332922   0.846925
     2  O   -0.667078   1.153075
     3  O   -0.667078   1.153075
     4  O   -0.332922   0.846925
 Sum of Mulliken charges =  -2.00000   4.00000

 Dipole moment (field-independent basis, Debye):
    X=             -0.0000    Y=             -0.0000    Z=             -0.0000  Tot=              0.0000
 Quadrupole moment (field-independent basis, Debye-Ang):
   XX=            -25.1847   YY=            -23.8130   ZZ=            -63.4838
   XY=             -0.0000   XZ=              0.0000   YZ=             -0.0000

 0983\PMP3-0=-299.6870704\MP4SDQ=-299.704143\CCSD=-299.7079567\CCSD(T)=
 Normal termination of Gaussian 16 at Sat Jan  7 02:59:47 2023.
