 Gaussian 16, Revision A.03,
 Gaussian 16:  ES64L-G16RevA.03 25-Dec-2016

 ------------------------------------------------
 #p CCSD(T,MaxCyc=300)/cc-pVTZ Guess=Read SCF=XQC
 ------------------------------------------------

 ---------
 O2_O2_212
 ---------
 Symbolic Z-matrix:
 Charge = -2 Multiplicity = 5

                         Standard orientation:
 ---------------------------------------------------------------------
 Center     Atomic      Atomic             Coordinates (Angstroms)
 Number     Number       Type             X           Y           Z
 ---------------------------------------------------------------------
      1          8           0        0.000000    0.000000    2.293385
      2          8           0        0.000000    0.000000    3.645765
      3          8           0        0.000000    0.000000   -3.645765
      4          8           0        0.000000    0.000000   -2.293385
 ---------------------------------------------------------------------

 SCF Done:  E(UHF) =  -298.769035534     A.U. after   12 cycles
 E2 =    -0.1208722410D+01 EUMP2 =    -0.29997775794411D+03
 CCSD(T)
 CCSD(T)= -0.29993509184D+03

 Unable to determine electronic state:  an orbital has unidentified symmetry.
 Alpha  occ. eigenvalues --  -20.24405 -20.24405 -20.21014 -20.21014  -1.11782
 Alpha  occ. eigenvalues --   -1.11781  -0.75694  -0.75669  -0.30349  -0.30344
 Alpha  occ. eigenvalues --   -0.27667  -0.27663  -0.25827  -0.25413  -0.09773
 Alpha  occ. eigenvalues --   -0.09766  -0.07248  -0.07240   0.42836
 Alpha virt. eigenvalues --    0.53297   1.05804   1.08618   1.10495   1.10590
 Alpha virt. eigenvalues --    1.11852   1.11931   1.14321   1.16977   1.19172
 Alpha virt. eigenvalues --    1.19373   1.20362   1.20580   1.33434   1.33436

  Beta  occ. eigenvalues --  -20.18556 -20.18556 -20.15921 -20.15921  -0.95487
  Beta  occ. eigenvalues --   -0.95482  -0.56574  -0.56516  -0.16445  -0.16373
  Beta  occ. eigenvalues --   -0.10709  -0.10427  -0.03531  -0.03526   0.24532
  Beta virt. eigenvalues --    0.33594   0.53160   0.53195   0.77154   0.78776
  Beta virt. eigenvalues --    1.14657   1.16477   1.18054   1.18126   1.18262
  Beta virt. eigenvalues --    1.20107   1.20149   1.20546   1.27187   1.27362

 Mulliken charges and spin densities:
               1          2
     1  O   -0.391820   1.106202
     2  O   -0.608180   0.893798
     3  O   -0.608180   0.893798
     4  O   -0.391820   1.106202
 Sum of Mulliken charges =  -2.00000   4.00000

 Dipole moment (field-independent basis, Debye):
    X=             -0.0000    Y=              0.0000    Z=              0.0000  Tot=              0.0000
 Quadrupole moment (field-independent basis, Debye-Ang):
   XX=            -25.1400   YY=            -23.9760   ZZ=           -126.6334
   XY=             -0.0000   XZ=              0.0000   YZ=             -0.0000

 6631\PMP3-0=-299.9755438\MP4SDQ=-299.6616323\CCSD=-299.815608\CCSD(T)=
 Normal termination of Gaussian 16 at Sat Jan  7 07:58:37 2023.
