 Gaussian 16, Revision A.03,
 Gaussian 16:  ES64L-G16RevA.03 25-Dec-2016

 ------------------------------------------------
 #p CCSD(T,MaxCyc=300)/cc-pVTZ Guess=Read SCF=XQC
 ------------------------------------------------

 ---------
 O2_O2_175
 ---------
 Symbolic Z-matrix:
 Charge = -2 Multiplicity = 5

                         Standard orientation:
 ---------------------------------------------------------------------
 Center     Atomic      Atomic             Coordinates (Angstroms)
 Number     Number       Type             X           Y           Z
 ---------------------------------------------------------------------
      1          8           0        0.000000    0.000000    2.031452
      2          8           0        0.000000    0.000000    3.383832
      3          8           0        0.000000    0.000000   -3.383832
      4          8           0        0.000000    0.000000   -2.031452
 ---------------------------------------------------------------------

 SCF Done:  E(UHF) =  -298.773124643     A.U. after   16 cycles
 E2 =    -0.1162069079D+01 EUMP2 =    -0.29993519372229D+03
 CCSD(T)
 CCSD(T)= -0.29992272577D+03

 Unable to determine electronic state:  an orbital has unidentified symmetry.
 Alpha  occ. eigenvalues --  -20.24190 -20.24190 -20.20238 -20.20238  -1.11117
 Alpha  occ. eigenvalues --   -1.11111  -0.74940  -0.74878  -0.29768  -0.29751
 Alpha  occ. eigenvalues --   -0.27069  -0.27052  -0.24947  -0.24251  -0.09097
 Alpha  occ. eigenvalues --   -0.09071  -0.06586  -0.06555   0.42640
 Alpha virt. eigenvalues --    0.55918   1.03967   1.10515   1.11071   1.11457
 Alpha virt. eigenvalues --    1.12442   1.12766   1.13768   1.19665   1.20477
 Alpha virt. eigenvalues --    1.20838   1.21716   1.22632   1.34117   1.34149

  Beta  occ. eigenvalues --  -20.18402 -20.18401 -20.15216 -20.15216  -0.95006
  Beta  occ. eigenvalues --   -0.94995  -0.55988  -0.55871  -0.15916  -0.15694
  Beta  occ. eigenvalues --   -0.10151  -0.09757  -0.02948  -0.02928   0.24648
  Beta virt. eigenvalues --    0.34751   0.53822   0.53966   0.76689   0.80733
  Beta virt. eigenvalues --    1.12782   1.17390   1.18385   1.18629   1.18929
  Beta virt. eigenvalues --    1.20691   1.20870   1.26258   1.27660   1.28444

 Mulliken charges and spin densities:
               1          2
     1  O   -0.380986   1.115902
     2  O   -0.619014   0.884098
     3  O   -0.619014   0.884098
     4  O   -0.380986   1.115902
 Sum of Mulliken charges =  -2.00000   4.00000

 Dipole moment (field-independent basis, Debye):
    X=             -0.0000    Y=              0.0000    Z=             -0.0000  Tot=              0.0000
 Quadrupole moment (field-independent basis, Debye-Ang):
   XX=            -25.1533   YY=            -23.9921   ZZ=           -111.9510
   XY=             -0.0000   XZ=              0.0000   YZ=             -0.0000

 Normal termination of Gaussian 16 at Sat Jan  7 07:01:46 2023.
