 Gaussian 16, Revision A.03,
 Gaussian 16:  ES64L-G16RevA.03 25-Dec-2016

 ------------------------------------------------
 #p CCSD(T,MaxCyc=300)/cc-pVTZ Guess=Read SCF=XQC
 ------------------------------------------------

 ---------
 O2_O2_270
 ---------
 Symbolic Z-matrix:
 Charge = -2 Multiplicity = 5

                         Standard orientation:
 ---------------------------------------------------------------------
 Center     Atomic      Atomic             Coordinates (Angstroms)
 Number     Number       Type             X           Y           Z
 ---------------------------------------------------------------------
      1          8           0        0.000000    0.000000    2.703984
      2          8           0        0.000000    0.000000    4.056364
      3          8           0        0.000000    0.000000   -4.056364
      4          8           0        0.000000    0.000000   -2.703984
 ---------------------------------------------------------------------

 SCF Done:  E(UHF) =  -298.770581328     A.U. after   15 cycles
 E2 =    -0.1265694206D+01 EUMP2 =    -0.30003627553368D+03
 CCSD(T)
 CCSD(T)= -0.29995051060D+03

 Unable to determine electronic state:  an orbital has unidentified symmetry.
 Alpha  occ. eigenvalues --  -20.25097 -20.25097 -20.22191 -20.22191  -1.12778
 Alpha  occ. eigenvalues --   -1.12778  -0.76758  -0.76749  -0.31292  -0.31292
 Alpha  occ. eigenvalues --   -0.28632  -0.28631  -0.26925  -0.26691  -0.10814
 Alpha  occ. eigenvalues --   -0.10813  -0.08269  -0.08268   0.42572
 Alpha virt. eigenvalues --    0.50937   1.05899   1.06246   1.09517   1.09527
 Alpha virt. eigenvalues --    1.10874   1.10882   1.13984   1.14421   1.18194
 Alpha virt. eigenvalues --    1.18221   1.19387   1.19416   1.32435   1.32438

  Beta  occ. eigenvalues --  -20.19255 -20.19254 -20.17029 -20.17029  -0.96407
  Beta  occ. eigenvalues --   -0.96404  -0.57552  -0.57523  -0.17411  -0.17402
  Beta  occ. eigenvalues --   -0.11650  -0.11466  -0.04470  -0.04470   0.24145
  Beta virt. eigenvalues --    0.32012   0.52124   0.52127   0.76728   0.76914
  Beta virt. eigenvalues --    1.14628   1.14850   1.17078   1.17084   1.17706
  Beta virt. eigenvalues --    1.17876   1.19154   1.19156   1.26220   1.26231

 Mulliken charges and spin densities:
               1          2
     1  O   -0.406899   1.094698
     2  O   -0.593101   0.905302
     3  O   -0.593101   0.905302
     4  O   -0.406899   1.094698
 Sum of Mulliken charges =  -2.00000   4.00000

 Dipole moment (field-independent basis, Debye):
    X=             -0.0000    Y=              0.0000    Z=              0.0000  Tot=              0.0000
 Quadrupole moment (field-independent basis, Debye-Ang):
   XX=            -25.1305   YY=            -23.9658   ZZ=           -151.5950
   XY=             -0.0000   XZ=              0.0000   YZ=             -0.0000

 Normal termination of Gaussian 16 at Sat Jan  7 09:30:19 2023.
