 Gaussian 16, Revision A.03,
 Gaussian 16:  ES64L-G16RevA.03 25-Dec-2016

 ------------------------------------------------
 #p CCSD(T,MaxCyc=300)/cc-pVTZ Guess=Read SCF=XQC
 ------------------------------------------------

 ---------
 O2_O2_136
 ---------
 Symbolic Z-matrix:
 Charge = -2 Multiplicity = 5

                         Standard orientation:
 ---------------------------------------------------------------------
 Center     Atomic      Atomic             Coordinates (Angstroms)
 Number     Number       Type             X           Y           Z
 ---------------------------------------------------------------------
      1          8           0        0.000000    0.000000    1.755359
      2          8           0        0.000000    0.000000    3.107739
      3          8           0        0.000000    0.000000   -3.107739
      4          8           0        0.000000    0.000000   -1.755359
 ---------------------------------------------------------------------

 SCF Done:  E(UHF) =  -298.781368547     A.U. after   16 cycles
 E2 =    -0.1113248063D+01 EUMP2 =    -0.29989461660986D+03
 CCSD(T)
 CCSD(T)= -0.29990795951D+03

 Unable to determine electronic state:  an orbital has unidentified symmetry.
 Alpha  occ. eigenvalues --  -20.23939 -20.23938 -20.19127 -20.19127  -1.10218
 Alpha  occ. eigenvalues --   -1.10196  -0.73931  -0.73754  -0.28969  -0.28907
 Alpha  occ. eigenvalues --   -0.26282  -0.26221  -0.23845  -0.22509  -0.08208
 Alpha  occ. eigenvalues --   -0.08118  -0.05689  -0.05581   0.42009
 Alpha virt. eigenvalues --    0.59846   1.02263   1.11387   1.11527   1.12822
 Alpha virt. eigenvalues --    1.12938   1.13380   1.14062   1.19830   1.20957
 Alpha virt. eigenvalues --    1.22692   1.24008   1.34877   1.35136   1.36587

  Beta  occ. eigenvalues --  -20.18230 -20.18230 -20.14174 -20.14174  -0.94339
  Beta  occ. eigenvalues --   -0.94305  -0.55184  -0.54897  -0.15247  -0.14623
  Beta  occ. eigenvalues --   -0.09381  -0.08781  -0.02092  -0.02023   0.24765
  Beta virt. eigenvalues --    0.36478   0.54615   0.55111   0.76736   0.83101
  Beta virt. eigenvalues --    1.10849   1.17986   1.18893   1.19191   1.20145
  Beta virt. eigenvalues --    1.21336   1.21965   1.27801   1.30665   1.30683

 Mulliken charges and spin densities:
               1          2
     1  O   -0.367941   1.127163
     2  O   -0.632059   0.872837
     3  O   -0.632059   0.872837
     4  O   -0.367941   1.127163
 Sum of Mulliken charges =  -2.00000   4.00000

 Dipole moment (field-independent basis, Debye):
    X=             -0.0000    Y=              0.0000    Z=              0.0000  Tot=              0.0000
 Quadrupole moment (field-independent basis, Debye-Ang):
   XX=            -25.1748   YY=            -24.0143   ZZ=            -97.4146
   XY=             -0.0000   XZ=              0.0000   YZ=             -0.0000

 Normal termination of Gaussian 16 at Sat Jan  7 06:03:43 2023.
