 Gaussian 16, Revision A.03,
 Gaussian 16:  ES64L-G16RevA.03 25-Dec-2016

 ------------------------------------------------
 #p CCSD(T,MaxCyc=300)/cc-pVTZ Guess=Read SCF=XQC
 ------------------------------------------------

 --------
 O2_O2_89
 --------
 Symbolic Z-matrix:
 Charge = -2 Multiplicity = 5

                         Standard orientation:
 ---------------------------------------------------------------------
 Center     Atomic      Atomic             Coordinates (Angstroms)
 Number     Number       Type             X           Y           Z
 ---------------------------------------------------------------------
      1          8           0        0.000000    0.000000    1.422633
      2          8           0        0.000000    0.000000    2.775013
      3          8           0        0.000000    0.000000   -2.775013
      4          8           0        0.000000    0.000000   -1.422633
 ---------------------------------------------------------------------

 SCF Done:  E(UHF) =  -298.781957572     A.U. after   14 cycles
 E2 =    -0.1077546794D+01 EUMP2 =    -0.29985950436627D+03
 CCSD(T)
 CCSD(T)= -0.29988663214D+03

 Unable to determine electronic state:  an orbital has unidentified symmetry.
 Alpha  occ. eigenvalues --  -20.21298 -20.21296 -20.17086 -20.17086  -1.08164
 Alpha  occ. eigenvalues --   -1.08050  -0.72115  -0.71415  -0.26589  -0.26341
 Alpha  occ. eigenvalues --   -0.24280  -0.24003  -0.22689  -0.19502  -0.06478
 Alpha  occ. eigenvalues --   -0.06052  -0.03640  -0.03217   0.41824
 Alpha virt. eigenvalues --    0.64297   1.10872   1.10919   1.12212   1.13342
 Alpha virt. eigenvalues --    1.13508   1.15053   1.16534   1.19538   1.21005
 Alpha virt. eigenvalues --    1.28802   1.29943   1.36654   1.37153   1.63159

  Beta  occ. eigenvalues --  -20.15564 -20.15562 -20.11908 -20.11908  -0.91932
  Beta  occ. eigenvalues --   -0.91759  -0.53179  -0.52087  -0.13544  -0.11349
  Beta  occ. eigenvalues --   -0.07512  -0.06534   0.00405   0.00795   0.25403
  Beta virt. eigenvalues --    0.41369   0.56077   0.57558   0.80331   0.86564
  Beta virt. eigenvalues --    1.16987   1.18484   1.20415   1.20786   1.22127
  Beta virt. eigenvalues --    1.22260   1.24801   1.27654   1.30900   1.37061

 Mulliken charges and spin densities:
               1          2
     1  O   -0.373948   1.064958
     2  O   -0.626052   0.935042
     3  O   -0.626052   0.935042
     4  O   -0.373948   1.064958
 Sum of Mulliken charges =  -2.00000   4.00000

 Dipole moment (field-independent basis, Debye):
    X=             -0.0000    Y=              0.0000    Z=              0.0000  Tot=              0.0000
 Quadrupole moment (field-independent basis, Debye-Ang):
   XX=            -25.2203   YY=            -24.0367   ZZ=            -81.7603
   XY=             -0.0000   XZ=              0.0000   YZ=             -0.0000

 Normal termination of Gaussian 16 at Sat Jan  7 04:56:01 2023.
