 Gaussian 16, Revision A.03,
 Gaussian 16:  ES64L-G16RevA.03 25-Dec-2016

 ------------------------------------------------
 #p CCSD(T,MaxCyc=300)/cc-pVTZ Guess=Read SCF=XQC
 ------------------------------------------------

 --------
 O2_O2_96
 --------
 Symbolic Z-matrix:
 Charge = -2 Multiplicity = 5

                         Standard orientation:
 ---------------------------------------------------------------------
 Center     Atomic      Atomic             Coordinates (Angstroms)
 Number     Number       Type             X           Y           Z
 ---------------------------------------------------------------------
      1          8           0        0.000000    0.000000    1.472188
      2          8           0        0.000000    0.000000    2.824568
      3          8           0        0.000000    0.000000   -2.824568
      4          8           0        0.000000    0.000000   -1.472188
 ---------------------------------------------------------------------

 SCF Done:  E(UHF) =  -298.782565027     A.U. after   16 cycles
 E2 =    -0.1082866022D+01 EUMP2 =    -0.29986543104862D+03
 CCSD(T)
 CCSD(T)= -0.29989023301D+03

 Unable to determine electronic state:  an orbital has unidentified symmetry.
 Alpha  occ. eigenvalues --  -20.21928 -20.21926 -20.17424 -20.17424  -1.08538
 Alpha  occ. eigenvalues --   -1.08449  -0.72418  -0.71854  -0.27035  -0.26830
 Alpha  occ. eigenvalues --   -0.24663  -0.24441  -0.22823  -0.20040  -0.06803
 Alpha  occ. eigenvalues --   -0.06469  -0.04009  -0.03664   0.41776
 Alpha virt. eigenvalues --    0.63661   1.08493   1.11037   1.12065   1.13282
 Alpha virt. eigenvalues --    1.13512   1.14740   1.16133   1.19584   1.20950
 Alpha virt. eigenvalues --    1.27586   1.28803   1.36369   1.36806   1.58907

  Beta  occ. eigenvalues --  -20.16196 -20.16195 -20.12303 -20.12303  -0.92413
  Beta  occ. eigenvalues --   -0.92278  -0.53518  -0.52634  -0.13831  -0.12019
  Beta  occ. eigenvalues --   -0.07813  -0.06896   0.00005   0.00302   0.25268
  Beta virt. eigenvalues --    0.40359   0.55795   0.57084   0.79612   0.85976
  Beta virt. eigenvalues --    1.15408   1.18409   1.20163   1.20204   1.21838
  Beta virt. eigenvalues --    1.22157   1.24266   1.27654   1.30754   1.35809

 Mulliken charges and spin densities:
               1          2
     1  O   -0.370711   1.082007
     2  O   -0.629289   0.917993
     3  O   -0.629289   0.917993
     4  O   -0.370711   1.082007
 Sum of Mulliken charges =  -2.00000   4.00000

 Dipole moment (field-independent basis, Debye):
    X=             -0.0000    Y=              0.0000    Z=              0.0000  Tot=              0.0000
 Quadrupole moment (field-independent basis, Debye-Ang):
   XX=            -25.2115   YY=            -24.0370   ZZ=            -83.9400
   XY=             -0.0000   XZ=              0.0000   YZ=             -0.0000

 85\PMP3-0=-299.8242266\MP4SDQ=-299.8042503\CCSD=-299.8015632\CCSD(T)=-
 Normal termination of Gaussian 16 at Sat Jan  7 05:05:36 2023.
