 Gaussian 16, Revision A.03,
 Gaussian 16:  ES64L-G16RevA.03 25-Dec-2016

 ------------------------------------------------
 #p CCSD(T,MaxCyc=300)/cc-pVTZ Guess=Read SCF=XQC
 ------------------------------------------------

 ---------
 O2_O2_294
 ---------
 Symbolic Z-matrix:
 Charge = -2 Multiplicity = 5

                         Standard orientation:
 ---------------------------------------------------------------------
 Center     Atomic      Atomic             Coordinates (Angstroms)
 Number     Number       Type             X           Y           Z
 ---------------------------------------------------------------------
      1          8           0        0.000000    0.000000    2.873887
      2          8           0        0.000000    0.000000    4.226267
      3          8           0        0.000000    0.000000   -4.226267
      4          8           0        0.000000    0.000000   -2.873887
 ---------------------------------------------------------------------

 SCF Done:  E(UHF) =  -298.772155411     A.U. after    9 cycles
 E2 =    -0.1285801962D+01 EUMP2 =    -0.30005795737295D+03
 CCSD(T)
 CCSD(T)= -0.29995569155D+03

 Unable to determine electronic state:  an orbital has unidentified symmetry.
 Alpha  occ. eigenvalues --  -20.25403 -20.25402 -20.22640 -20.22640  -1.13152
 Alpha  occ. eigenvalues --   -1.13152  -0.77148  -0.77141  -0.31654  -0.31654
 Alpha  occ. eigenvalues --   -0.29002  -0.29002  -0.27305  -0.27109  -0.11209
 Alpha  occ. eigenvalues --   -0.11208  -0.08655  -0.08655   0.42406
 Alpha virt. eigenvalues --    0.50268   1.05575   1.05702   1.09146   1.09151
 Alpha virt. eigenvalues --    1.10504   1.10508   1.13634   1.13909   1.17815
 Alpha virt. eigenvalues --    1.17832   1.19008   1.19025   1.32068   1.32069

  Beta  occ. eigenvalues --  -20.19576 -20.19576 -20.17456 -20.17456  -0.96778
  Beta  occ. eigenvalues --   -0.96776  -0.57931  -0.57908  -0.17795  -0.17791
  Beta  occ. eigenvalues --   -0.12017  -0.11860  -0.04829  -0.04829   0.23969
  Beta virt. eigenvalues --    0.31438   0.51732   0.51733   0.76374   0.76435
  Beta virt. eigenvalues --    1.14295   1.14371   1.16705   1.16707   1.17332
  Beta virt. eigenvalues --    1.17382   1.18791   1.18792   1.25843   1.25846

 Mulliken charges and spin densities:
               1          2
     1  O   -0.412262   1.090432
     2  O   -0.587738   0.909568
     3  O   -0.587738   0.909568
     4  O   -0.412262   1.090432
 Sum of Mulliken charges =  -2.00000   4.00000

 Dipole moment (field-independent basis, Debye):
    X=             -0.0000    Y=              0.0000    Z=             -0.0000  Tot=              0.0000
 Quadrupole moment (field-independent basis, Debye-Ang):
   XX=            -25.1285   YY=            -23.9645   ZZ=           -162.8003
   XY=             -0.0000   XZ=              0.0000   YZ=             -0.0000

 Normal termination of Gaussian 16 at Sat Jan  7 10:06:46 2023.
