 Gaussian 16, Revision A.03,
 Gaussian 16:  ES64L-G16RevA.03 25-Dec-2016

 ------------------------------------------------
 #p CCSD(T,MaxCyc=300)/cc-pVTZ Guess=Read SCF=XQC
 ------------------------------------------------

 ---------
 O2_O2_237
 ---------
 Symbolic Z-matrix:
 Charge = -2 Multiplicity = 5

                         Standard orientation:
 ---------------------------------------------------------------------
 Center     Atomic      Atomic             Coordinates (Angstroms)
 Number     Number       Type             X           Y           Z
 ---------------------------------------------------------------------
      1          8           0        0.000000    0.000000    2.470368
      2          8           0        0.000000    0.000000    3.822748
      3          8           0        0.000000    0.000000   -3.822748
      4          8           0        0.000000    0.000000   -2.470368
 ---------------------------------------------------------------------

 SCF Done:  E(UHF) =  -298.768991235     A.U. after   10 cycles
 E2 =    -0.1235341941D+01 EUMP2 =    -0.30000433317634D+03
 CCSD(T)
 CCSD(T)= -0.29994231507D+03

 Unable to determine electronic state:  an orbital has unidentified symmetry.
 Alpha  occ. eigenvalues --  -20.24677 -20.24676 -20.21530 -20.21530  -1.12223
 Alpha  occ. eigenvalues --   -1.12222  -0.76171  -0.76155  -0.30759  -0.30758
 Alpha  occ. eigenvalues --   -0.28088  -0.28086  -0.26335  -0.26022  -0.10230
 Alpha  occ. eigenvalues --   -0.10227  -0.07697  -0.07694   0.42768
 Alpha virt. eigenvalues --    0.52099   1.06114   1.07363   1.10067   1.10101
 Alpha virt. eigenvalues --    1.11424   1.11452   1.14335   1.15465   1.18752
 Alpha virt. eigenvalues --    1.18829   1.19944   1.20028   1.32986   1.32991

  Beta  occ. eigenvalues --  -20.18821 -20.18821 -20.16403 -20.16403  -0.95874
  Beta  occ. eigenvalues --   -0.95871  -0.56997  -0.56956  -0.16855  -0.16826
  Beta  occ. eigenvalues --   -0.11115  -0.10883  -0.03941  -0.03939   0.24383
  Beta virt. eigenvalues --    0.32881   0.52705   0.52717   0.77104   0.77806
  Beta virt. eigenvalues --    1.14901   1.15710   1.17629   1.17654   1.18122
  Beta virt. eigenvalues --    1.18930   1.19690   1.19704   1.26773   1.26828

 Mulliken charges and spin densities:
               1          2
     1  O   -0.398631   1.101035
     2  O   -0.601369   0.898965
     3  O   -0.601369   0.898965
     4  O   -0.398631   1.101035
 Sum of Mulliken charges =  -2.00000   4.00000

 Dipole moment (field-independent basis, Debye):
    X=             -0.0000    Y=              0.0000    Z=              0.0000  Tot=              0.0000
 Quadrupole moment (field-independent basis, Debye-Ang):
   XX=            -25.1347   YY=            -23.9699   ZZ=           -137.0528
   XY=             -0.0000   XZ=              0.0000   YZ=             -0.0000

 Normal termination of Gaussian 16 at Sat Jan  7 08:36:54 2023.
