 Gaussian 16, Revision A.03,
 Gaussian 16:  ES64L-G16RevA.03 25-Dec-2016

 ------------------------------------------------
 #p CCSD(T,MaxCyc=300)/cc-pVTZ Guess=Read SCF=XQC
 ------------------------------------------------

 ---------
 O2_O2_269
 ---------
 Symbolic Z-matrix:
 Charge = -2 Multiplicity = 5

                         Standard orientation:
 ---------------------------------------------------------------------
 Center     Atomic      Atomic             Coordinates (Angstroms)
 Number     Number       Type             X           Y           Z
 ---------------------------------------------------------------------
      1          8           0        0.000000    0.000000    2.696905
      2          8           0        0.000000    0.000000    4.049285
      3          8           0        0.000000    0.000000   -4.049285
      4          8           0        0.000000    0.000000   -2.696905
 ---------------------------------------------------------------------

 SCF Done:  E(UHF) =  -298.770519581     A.U. after    9 cycles
 E2 =    -0.1264829279D+01 EUMP2 =    -0.30003534886016D+03
 CCSD(T)
 CCSD(T)= -0.29995028160D+03

 Unable to determine electronic state:  an orbital has unidentified symmetry.
 Alpha  occ. eigenvalues --  -20.25084 -20.25084 -20.22172 -20.22172  -1.12762
 Alpha  occ. eigenvalues --   -1.12762  -0.76741  -0.76732  -0.31277  -0.31276
 Alpha  occ. eigenvalues --   -0.28616  -0.28615  -0.26908  -0.26672  -0.10797
 Alpha  occ. eigenvalues --   -0.10796  -0.08252  -0.08251   0.42579
 Alpha virt. eigenvalues --    0.50967   1.05911   1.06272   1.09533   1.09543
 Alpha virt. eigenvalues --    1.10890   1.10899   1.13998   1.14445   1.18211
 Alpha virt. eigenvalues --    1.18238   1.19404   1.19433   1.32451   1.32454

  Beta  occ. eigenvalues --  -20.19241 -20.19241 -20.17010 -20.17010  -0.96391
  Beta  occ. eigenvalues --   -0.96389  -0.57536  -0.57507  -0.17395  -0.17385
  Beta  occ. eigenvalues --   -0.11634  -0.11449  -0.04455  -0.04454   0.24153
  Beta virt. eigenvalues --    0.32037   0.52141   0.52144   0.76742   0.76936
  Beta virt. eigenvalues --    1.14641   1.14872   1.17094   1.17100   1.17721
  Beta virt. eigenvalues --    1.17900   1.19170   1.19172   1.26236   1.26247

 Mulliken charges and spin densities:
               1          2
     1  O   -0.406651   1.094898
     2  O   -0.593349   0.905102
     3  O   -0.593349   0.905102
     4  O   -0.406651   1.094898
 Sum of Mulliken charges =  -2.00000   4.00000

 Dipole moment (field-independent basis, Debye):
    X=             -0.0000    Y=             -0.0000    Z=             -0.0000  Tot=              0.0000
 Quadrupole moment (field-independent basis, Debye-Ang):
   XX=            -25.1306   YY=            -23.9659   ZZ=           -151.1408
   XY=             -0.0000   XZ=              0.0000   YZ=             -0.0000

 34\PMP3-0=-300.0588441\MP4SDQ=-299.47025\CCSD=-299.8235965\CCSD(T)=-29
 Normal termination of Gaussian 16 at Sat Jan  7 09:28:52 2023.
