 Gaussian 16, Revision A.03,
 Gaussian 16:  ES64L-G16RevA.03 25-Dec-2016

 ------------------------------------------------
 #p CCSD(T,MaxCyc=300)/cc-pVTZ Guess=Read SCF=XQC
 ------------------------------------------------

 ---------
 O2_O2_188
 ---------
 Symbolic Z-matrix:
 Charge = -2 Multiplicity = 5

                         Standard orientation:
 ---------------------------------------------------------------------
 Center     Atomic      Atomic             Coordinates (Angstroms)
 Number     Number       Type             X           Y           Z
 ---------------------------------------------------------------------
      1          8           0        0.000000    0.000000    2.123482
      2          8           0        0.000000    0.000000    3.475862
      3          8           0        0.000000    0.000000   -3.475862
      4          8           0        0.000000    0.000000   -2.123482
 ---------------------------------------------------------------------

 SCF Done:  E(UHF) =  -298.771031549     A.U. after   16 cycles
 E2 =    -0.1179319315D+01 EUMP2 =    -0.29995035086339D+03
 CCSD(T)
 CCSD(T)= -0.29992727983D+03

 Unable to determine electronic state:  an orbital has unidentified symmetry.
 Alpha  occ. eigenvalues --  -20.24237 -20.24236 -20.20517 -20.20517  -1.11354
 Alpha  occ. eigenvalues --   -1.11351  -0.75214  -0.75170  -0.29969  -0.29959
 Alpha  occ. eigenvalues --   -0.27277  -0.27266  -0.25276  -0.24704  -0.09336
 Alpha  occ. eigenvalues --   -0.09320  -0.06820  -0.06800   0.42761
 Alpha virt. eigenvalues --    0.54859   1.04803   1.09934   1.10883   1.11124
 Alpha virt. eigenvalues --    1.12246   1.12448   1.14004   1.19521   1.19955
 Alpha virt. eigenvalues --    1.20026   1.20703   1.21250   1.33873   1.33888

  Beta  occ. eigenvalues --  -20.18420 -20.18419 -20.15468 -20.15467  -0.95163
  Beta  occ. eigenvalues --   -0.95155  -0.56190  -0.56101  -0.16091  -0.15939
  Beta  occ. eigenvalues --   -0.10343  -0.09995  -0.03151  -0.03138   0.24623
  Beta virt. eigenvalues --    0.34324   0.53591   0.53681   0.76908   0.79989
  Beta virt. eigenvalues --    1.13654   1.17119   1.18321   1.18438   1.18626
  Beta virt. eigenvalues --    1.20493   1.20603   1.23636   1.27525   1.28001

 Mulliken charges and spin densities:
               1          2
     1  O   -0.384917   1.112023
     2  O   -0.615083   0.887977
     3  O   -0.615083   0.887977
     4  O   -0.384917   1.112023
 Sum of Mulliken charges =  -2.00000   4.00000

 Dipole moment (field-independent basis, Debye):
    X=             -0.0000    Y=              0.0000    Z=              0.0000  Tot=              0.0000
 Quadrupole moment (field-independent basis, Debye-Ang):
   XX=            -25.1478   YY=            -23.9855   ZZ=           -117.0247
   XY=             -0.0000   XZ=              0.0000   YZ=             -0.0000

 Normal termination of Gaussian 16 at Sat Jan  7 07:21:58 2023.
