 Gaussian 16, Revision A.03,
 Gaussian 16:  ES64L-G16RevA.03 25-Dec-2016

 ------------------------------------------------
 #p CCSD(T,MaxCyc=300)/cc-pVTZ Guess=Read SCF=XQC
 ------------------------------------------------

 ---------
 O2_O2_112
 ---------
 Symbolic Z-matrix:
 Charge = -2 Multiplicity = 5

                         Standard orientation:
 ---------------------------------------------------------------------
 Center     Atomic      Atomic             Coordinates (Angstroms)
 Number     Number       Type             X           Y           Z
 ---------------------------------------------------------------------
      1          8           0        0.000000    0.000000    1.585456
      2          8           0        0.000000    0.000000    2.937836
      3          8           0        0.000000    0.000000   -2.937836
      4          8           0        0.000000    0.000000   -1.585456
 ---------------------------------------------------------------------

 SCF Done:  E(UHF) =  -298.783355361     A.U. after   16 cycles
 E2 =    -0.1093695710D+01 EUMP2 =    -0.29987705107094D+03
 CCSD(T)
 CCSD(T)= -0.29989780647D+03

 Unable to determine electronic state:  an orbital has unidentified symmetry.
 Alpha  occ. eigenvalues --  -20.23110 -20.23109 -20.18118 -20.18118  -1.09326
 Alpha  occ. eigenvalues --   -1.09275  -0.73080  -0.72730  -0.27993  -0.27862
 Alpha  occ. eigenvalues --   -0.25445  -0.25311  -0.23192  -0.21133  -0.07428
 Alpha  occ. eigenvalues --   -0.07235  -0.04786  -0.04569   0.41753
 Alpha virt. eigenvalues --    0.62220   1.04503   1.11347   1.11783   1.13154
 Alpha virt. eigenvalues --    1.13485   1.13980   1.15234   1.19729   1.20914
 Alpha virt. eigenvalues --    1.25187   1.26515   1.35733   1.36051   1.49227

  Beta  occ. eigenvalues --  -20.17387 -20.17387 -20.13113 -20.13112  -0.93381
  Beta  occ. eigenvalues --   -0.93304  -0.54287  -0.53734  -0.14488  -0.13314
  Beta  occ. eigenvalues --   -0.08507  -0.07718  -0.00977  -0.00821   0.25008
  Beta virt. eigenvalues --    0.38391   0.55259   0.56176   0.78132   0.84725
  Beta virt. eigenvalues --    1.12461   1.18276   1.19534   1.19675   1.21169
  Beta virt. eigenvalues --    1.21853   1.23150   1.27722   1.30604   1.33297

 Mulliken charges and spin densities:
               1          2
     1  O   -0.364004   1.114343
     2  O   -0.635996   0.885657
     3  O   -0.635996   0.885657
     4  O   -0.364004   1.114343
 Sum of Mulliken charges =  -2.00000   4.00000

 Dipole moment (field-independent basis, Debye):
    X=             -0.0000    Y=              0.0000    Z=             -0.0000  Tot=              0.0000
 Quadrupole moment (field-independent basis, Debye-Ang):
   XX=            -25.1943   YY=            -24.0297   ZZ=            -89.2373
   XY=             -0.0000   XZ=              0.0000   YZ=             -0.0000

 Normal termination of Gaussian 16 at Sat Jan  7 05:27:51 2023.
