 Gaussian 16, Revision A.03,
 Gaussian 16:  ES64L-G16RevA.03 25-Dec-2016

 ------------------------------------------------
 #p CCSD(T,MaxCyc=300)/cc-pVTZ Guess=Read SCF=XQC
 ------------------------------------------------

 ---------
 O2_O2_263
 ---------
 Symbolic Z-matrix:
 Charge = -2 Multiplicity = 5

                         Standard orientation:
 ---------------------------------------------------------------------
 Center     Atomic      Atomic             Coordinates (Angstroms)
 Number     Number       Type             X           Y           Z
 ---------------------------------------------------------------------
      1          8           0        0.000000    0.000000    2.654429
      2          8           0        0.000000    0.000000    4.006809
      3          8           0        0.000000    0.000000   -4.006809
      4          8           0        0.000000    0.000000   -2.654429
 ---------------------------------------------------------------------

 SCF Done:  E(UHF) =  -298.770160583     A.U. after    9 cycles
 E2 =    -0.1259584149D+01 EUMP2 =    -0.30002974473107D+03
 CCSD(T)
 CCSD(T)= -0.29994888608D+03

 Unable to determine electronic state:  an orbital has unidentified symmetry.
 Alpha  occ. eigenvalues --  -20.25007 -20.25006 -20.22054 -20.22054  -1.12664
 Alpha  occ. eigenvalues --   -1.12664  -0.76638  -0.76628  -0.31182  -0.31181
 Alpha  occ. eigenvalues --   -0.28519  -0.28518  -0.26806  -0.26559  -0.10693
 Alpha  occ. eigenvalues --   -0.10692  -0.08151  -0.08150   0.42619
 Alpha virt. eigenvalues --    0.51155   1.05978   1.06439   1.09630   1.09643
 Alpha virt. eigenvalues --    1.10987   1.10998   1.14078   1.14598   1.18310
 Alpha virt. eigenvalues --    1.18343   1.19503   1.19538   1.32548   1.32551

  Beta  occ. eigenvalues --  -20.19160 -20.19160 -20.16899 -20.16899  -0.96295
  Beta  occ. eigenvalues --   -0.96292  -0.57437  -0.57406  -0.17295  -0.17283
  Beta  occ. eigenvalues --   -0.11539  -0.11346  -0.04361  -0.04360   0.24197
  Beta virt. eigenvalues --    0.32189   0.52244   0.52248   0.76824   0.77075
  Beta virt. eigenvalues --    1.14713   1.15011   1.17192   1.17200   1.17809
  Beta virt. eigenvalues --    1.18050   1.19265   1.19268   1.26335   1.26350

 Mulliken charges and spin densities:
               1          2
     1  O   -0.405218   1.096015
     2  O   -0.594782   0.903985
     3  O   -0.594782   0.903985
     4  O   -0.405218   1.096015
 Sum of Mulliken charges =  -2.00000   4.00000

 Dipole moment (field-independent basis, Debye):
    X=             -0.0000    Y=              0.0000    Z=             -0.0000  Tot=              0.0000
 Quadrupole moment (field-independent basis, Debye-Ang):
   XX=            -25.1312   YY=            -23.9664   ZZ=           -148.4296
   XY=             -0.0000   XZ=              0.0000   YZ=             -0.0000

 Normal termination of Gaussian 16 at Sat Jan  7 09:18:53 2023.
