 Gaussian 16, Revision A.03,
 Gaussian 16:  ES64L-G16RevA.03 25-Dec-2016

 ------------------------------------------------
 #p CCSD(T,MaxCyc=300)/cc-pVTZ Guess=Read SCF=XQC
 ------------------------------------------------

 --------
 O2_O2_52
 --------
 Symbolic Z-matrix:
 Charge = -2 Multiplicity = 5

                         Standard orientation:
 ---------------------------------------------------------------------
 Center     Atomic      Atomic             Coordinates (Angstroms)
 Number     Number       Type             X           Y           Z
 ---------------------------------------------------------------------
      1          8           0        0.000000    0.000000    1.160699
      2          8           0        0.000000    0.000000    2.513079
      3          8           0        0.000000    0.000000   -2.513079
      4          8           0        0.000000    0.000000   -1.160699
 ---------------------------------------------------------------------

 SCF Done:  E(UHF) =  -298.778534975     A.U. after   13 cycles
 E2 =    -0.1044082833D+01 EUMP2 =    -0.29982261780865D+03
 CCSD(T)
 CCSD(T)= -0.29986252317D+03

 Unable to determine electronic state:  an orbital has unidentified symmetry.
 Alpha  occ. eigenvalues --  -20.17884 -20.17880 -20.14751 -20.14751  -1.06230
 Alpha  occ. eigenvalues --   -1.05769  -0.70852  -0.68554  -0.24406  -0.23690
 Alpha  occ. eigenvalues --   -0.22632  -0.22310  -0.21397  -0.15757  -0.04624
 Alpha  occ. eigenvalues --   -0.03178  -0.01715  -0.00476   0.41968
 Alpha virt. eigenvalues --    0.68497   1.10260   1.13157   1.13423   1.14159
 Alpha virt. eigenvalues --    1.16716   1.18646   1.20086   1.22031   1.29945
 Alpha virt. eigenvalues --    1.35754   1.36502   1.37979   1.39005   1.81799

  Beta  occ. eigenvalues --  -20.12100 -20.12098 -20.09323 -20.09323  -0.89335
  Beta  occ. eigenvalues --   -0.88679  -0.52061  -0.48577  -0.12713  -0.06710
  Beta  occ. eigenvalues --   -0.05907  -0.04403   0.01977   0.03467   0.25600
  Beta virt. eigenvalues --    0.47607   0.57633   0.60705   0.84046   0.89957
  Beta virt. eigenvalues --    1.19511   1.20259   1.22229   1.23123   1.23802
  Beta virt. eigenvalues --    1.27665   1.28591   1.32587   1.34252   1.39764

 Mulliken charges and spin densities:
               1          2
     1  O   -0.369686   0.983800
     2  O   -0.630314   1.016200
     3  O   -0.630314   1.016200
     4  O   -0.369686   0.983800
 Sum of Mulliken charges =  -2.00000   4.00000

 Dipole moment (field-independent basis, Debye):
    X=             -0.0000    Y=             -0.0000    Z=             -0.0000  Tot=              0.0000
 Quadrupole moment (field-independent basis, Debye-Ang):
   XX=            -25.2848   YY=            -24.0248   ZZ=            -72.2608
   XY=             -0.0000   XZ=              0.0000   YZ=             -0.0000

 Normal termination of Gaussian 16 at Sat Jan  7 04:05:04 2023.
