 Gaussian 16, Revision A.03,
 Gaussian 16:  ES64L-G16RevA.03 25-Dec-2016

 ------------------------------------------------
 #p CCSD(T,MaxCyc=300)/cc-pVTZ Guess=Read SCF=XQC
 ------------------------------------------------

 --------
 O2_O2_19
 --------
 Symbolic Z-matrix:
 Charge = -2 Multiplicity = 5

                         Standard orientation:
 ---------------------------------------------------------------------
 Center     Atomic      Atomic             Coordinates (Angstroms)
 Number     Number       Type             X           Y           Z
 ---------------------------------------------------------------------
      1          8           0        0.000000    0.000000    0.927082
      2          8           0        0.000000    0.000000    2.279462
      3          8           0        0.000000    0.000000   -2.279462
      4          8           0        0.000000    0.000000   -0.927082
 ---------------------------------------------------------------------

 SCF Done:  E(UHF) =  -298.760198528     A.U. after   13 cycles
 E2 =    -0.1004539730D+01 EUMP2 =    -0.29976473825818D+03
 CCSD(T)
 CCSD(T)= -0.29981533754D+03

 Unable to determine electronic state:  an orbital has unidentified symmetry.
 Alpha  occ. eigenvalues --  -20.14047 -20.14038 -20.11768 -20.11768  -1.04736
 Alpha  occ. eigenvalues --   -1.03032  -0.71399  -0.64338  -0.24186  -0.22679
 Alpha  occ. eigenvalues --   -0.20897  -0.20762  -0.18152  -0.09520  -0.03314
 Alpha  occ. eigenvalues --   -0.00185   0.00952   0.03115   0.41091
 Alpha virt. eigenvalues --    0.76302   1.09968   1.12363   1.16290   1.17099
 Alpha virt. eigenvalues --    1.18326   1.20685   1.22803   1.24715   1.38637
 Alpha virt. eigenvalues --    1.39354   1.41572   1.41994   1.49934   1.92409

  Beta  occ. eigenvalues --  -20.08391 -20.08386 -20.06058 -20.06058  -0.87463
  Beta  occ. eigenvalues --   -0.85065  -0.53695  -0.43709  -0.13346  -0.04523
  Beta  occ. eigenvalues --   -0.01928   0.00997   0.01953   0.06757   0.24162
  Beta virt. eigenvalues --    0.55239   0.59110   0.64683   0.87127   0.93856
  Beta virt. eigenvalues --    1.20730   1.21832   1.24754   1.25608   1.25733
  Beta virt. eigenvalues --    1.30585   1.32401   1.35980   1.40704   1.41463

 Mulliken charges and spin densities:
               1          2
     1  O   -0.350146   0.895393
     2  O   -0.649854   1.104607
     3  O   -0.649854   1.104607
     4  O   -0.350146   0.895393
 Sum of Mulliken charges =  -2.00000   4.00000

 Dipole moment (field-independent basis, Debye):
    X=             -0.0000    Y=             -0.0000    Z=             -0.0000  Tot=              0.0000
 Quadrupole moment (field-independent basis, Debye-Ang):
   XX=            -25.2740   YY=            -23.9366   ZZ=            -65.6454
   XY=             -0.0000   XZ=              0.0000   YZ=             -0.0000

 Normal termination of Gaussian 16 at Sat Jan  7 03:19:42 2023.
