 Gaussian 16, Revision A.03,
 Gaussian 16:  ES64L-G16RevA.03 25-Dec-2016

 ---------------------------------------------------------------
 #p ROCCSD(T)/cc-pVTZ Guess=Read SCF=(VeryTight,CDIIS,VShift=10)
 ---------------------------------------------------------------

 --------
 O2_O2_98
 --------
 Symbolic Z-matrix:
 Charge =  0 Multiplicity = 5

                         Standard orientation:
 ---------------------------------------------------------------------
 Center     Atomic      Atomic             Coordinates (Angstroms)
 Number     Number       Type             X           Y           Z
 ---------------------------------------------------------------------
      1          8           0        0.000000    0.000000    2.180117
      2          8           0        0.000000    0.000000    3.532497
      3          8           0        0.000000    0.000000   -3.532497
      4          8           0        0.000000    0.000000   -2.180117
 ---------------------------------------------------------------------

 SCF Done:  E(ROHF) =  -299.202873130     A.U. after    9 cycles
 E2 =    -0.1041709079D+01 EUMP2 =    -0.30024458220886D+03
 CCSD(T)
 CCSD(T)= -0.30021930144D+03

 The electronic state is 5-SGG.
 Alpha  occ. eigenvalues --  -20.77271 -20.77271 -20.77226 -20.77226  -1.60071
 Alpha  occ. eigenvalues --   -1.60071  -1.23511  -1.23501  -0.77574  -0.77574
 Alpha  occ. eigenvalues --   -0.77570  -0.77570  -0.72042  -0.71980  -0.57641
 Alpha  occ. eigenvalues --   -0.57641  -0.57632  -0.57632
 Alpha virt. eigenvalues --    0.24226   0.25446   0.64918   0.68950   0.68950
 Alpha virt. eigenvalues --    0.69075   0.69075   0.69479   0.74025   0.77158
 Alpha virt. eigenvalues --    0.78954   0.78954   0.79312   0.79312   0.88518

 Mulliken charges and spin densities:
               1          2
     1  O   -0.000587   0.999042
     2  O    0.000587   1.000958
     3  O    0.000587   1.000958
     4  O   -0.000587   0.999042
 Sum of Mulliken charges =  -0.00000   4.00000

 Dipole moment (field-independent basis, Debye):
    X=              0.0000    Y=             -0.0000    Z=              0.0000  Tot=              0.0000
 Quadrupole moment (field-independent basis, Debye-Ang):
   XX=            -20.3614   YY=            -20.3614   ZZ=            -20.1134
   XY=              0.0000   XZ=              0.0000   YZ=              0.0000

 =-300.1880674\CCSD=-300.1693007\CCSD(T)=-300.2193014\RMSD=9.145e-09\PG
 Normal termination of Gaussian 16 at Sat Jan 14 23:59:42 2023.
