 Gaussian 16, Revision A.03,
 Gaussian 16:  ES64L-G16RevA.03 25-Dec-2016

 ---------------------------------------------------------------
 #p ROCCSD(T)/cc-pVTZ Guess=Read SCF=(VeryTight,CDIIS,VShift=10)
 ---------------------------------------------------------------

 ---------
 O2_O2_178
 ---------
 Symbolic Z-matrix:
 Charge =  0 Multiplicity = 5

                         Standard orientation:
 ---------------------------------------------------------------------
 Center     Atomic      Atomic             Coordinates (Angstroms)
 Number     Number       Type             X           Y           Z
 ---------------------------------------------------------------------
      1          8           0        0.000000    0.000000    3.312803
      2          8           0        0.000000    0.000000    4.665183
      3          8           0        0.000000    0.000000   -4.665183
      4          8           0        0.000000    0.000000   -3.312803
 ---------------------------------------------------------------------

 SCF Done:  E(ROHF) =  -299.202861659     A.U. after    2 cycles
 E2 =    -0.1041572131D+01 EUMP2 =    -0.30024443379022D+03
 CCSD(T)
 CCSD(T)= -0.30021921259D+03

 The electronic state is 5-SGG.
 Alpha  occ. eigenvalues --  -20.77258 -20.77258 -20.77223 -20.77223  -1.60064
 Alpha  occ. eigenvalues --   -1.60064  -1.23498  -1.23498  -0.77565  -0.77565
 Alpha  occ. eigenvalues --   -0.77565  -0.77565  -0.72003  -0.72003  -0.57629
 Alpha  occ. eigenvalues --   -0.57629  -0.57629  -0.57629
 Alpha virt. eigenvalues --    0.24883   0.24883   0.67611   0.67614   0.69019
 Alpha virt. eigenvalues --    0.69019   0.69019   0.69019   0.75116   0.75117
 Alpha virt. eigenvalues --    0.79138   0.79138   0.79138   0.79138   0.88527

 Mulliken charges and spin densities:
               1          2
     1  O   -0.000136   0.999747
     2  O    0.000136   1.000253
     3  O    0.000136   1.000253
     4  O   -0.000136   0.999747
 Sum of Mulliken charges =  -0.00000   4.00000

 Dipole moment (field-independent basis, Debye):
    X=              0.0000    Y=              0.0000    Z=             -0.0000  Tot=              0.0000
 Quadrupole moment (field-independent basis, Debye-Ang):
   XX=            -20.3615   YY=            -20.3615   ZZ=            -20.1442
   XY=              0.0000   XZ=              0.0000   YZ=              0.0000

 Q=-300.1879384\CCSD=-300.1692223\CCSD(T)=-300.2192126\RMSD=7.956e-09\P
 Normal termination of Gaussian 16 at Sun Jan 15 01:28:31 2023.
