 Gaussian 16, Revision A.03,
 Gaussian 16:  ES64L-G16RevA.03 25-Dec-2016

 ---------------------------------------------------------------
 #p ROCCSD(T)/cc-pVTZ Guess=Read SCF=(VeryTight,CDIIS,VShift=10)
 ---------------------------------------------------------------

 --------
 O2_O2_85
 --------
 Symbolic Z-matrix:
 Charge =  0 Multiplicity = 5

                         Standard orientation:
 ---------------------------------------------------------------------
 Center     Atomic      Atomic             Coordinates (Angstroms)
 Number     Number       Type             X           Y           Z
 ---------------------------------------------------------------------
      1          8           0        0.000000    0.000000    1.996055
      2          8           0        0.000000    0.000000    3.348435
      3          8           0        0.000000    0.000000   -3.348435
      4          8           0        0.000000    0.000000   -1.996055
 ---------------------------------------------------------------------

 SCF Done:  E(ROHF) =  -299.202889123     A.U. after    8 cycles
 E2 =    -0.1041814086D+01 EUMP2 =    -0.30024470320964D+03
 CCSD(T)
 CCSD(T)= -0.30021938186D+03

 The electronic state is 5-SGG.
 Alpha  occ. eigenvalues --  -20.77278 -20.77278 -20.77228 -20.77228  -1.60077
 Alpha  occ. eigenvalues --   -1.60073  -1.23523  -1.23497  -0.77581  -0.77581
 Alpha  occ. eigenvalues --   -0.77571  -0.77571  -0.72087  -0.71942  -0.57654
 Alpha  occ. eigenvalues --   -0.57654  -0.57628  -0.57628
 Alpha virt. eigenvalues --    0.23586   0.25927   0.62178   0.68834   0.68834
 Alpha virt. eigenvalues --    0.69173   0.69173   0.70292   0.73326   0.78653
 Alpha virt. eigenvalues --    0.78653   0.79625   0.79625   0.80754   0.88500

 Mulliken charges and spin densities:
               1          2
     1  O   -0.000820   0.998769
     2  O    0.000820   1.001231
     3  O    0.000820   1.001231
     4  O   -0.000820   0.998769
 Sum of Mulliken charges =   0.00000   4.00000

 Dipole moment (field-independent basis, Debye):
    X=              0.0000    Y=              0.0000    Z=             -0.0000  Tot=              0.0000
 Quadrupole moment (field-independent basis, Debye-Ang):
   XX=            -20.3614   YY=            -20.3614   ZZ=            -20.1005
   XY=              0.0000   XZ=              0.0000   YZ=              0.0000

 0.1881707\CCSD=-300.1693718\CCSD(T)=-300.2193819\RMSD=4.724e-09\PG=D*H
 Normal termination of Gaussian 16 at Sat Jan 14 23:45:38 2023.
