 Gaussian 16, Revision A.03,
 Gaussian 16:  ES64L-G16RevA.03 25-Dec-2016

 ---------------------------------------------------------------
 #p ROCCSD(T)/cc-pVTZ Guess=Read SCF=(VeryTight,CDIIS,VShift=10)
 ---------------------------------------------------------------

 ---------
 O2_O2_106
 ---------
 Symbolic Z-matrix:
 Charge =  0 Multiplicity = 5

                         Standard orientation:
 ---------------------------------------------------------------------
 Center     Atomic      Atomic             Coordinates (Angstroms)
 Number     Number       Type             X           Y           Z
 ---------------------------------------------------------------------
      1          8           0        0.000000    0.000000    2.293385
      2          8           0        0.000000    0.000000    3.645765
      3          8           0        0.000000    0.000000   -3.645765
      4          8           0        0.000000    0.000000   -2.293385
 ---------------------------------------------------------------------

 SCF Done:  E(ROHF) =  -299.202866531     A.U. after    4 cycles
 E2 =    -0.1041671111D+01 EUMP2 =    -0.30024453764244D+03
 CCSD(T)
 CCSD(T)= -0.30021927277D+03

 The electronic state is 5-SGG.
 Alpha  occ. eigenvalues --  -20.77267 -20.77267 -20.77226 -20.77226  -1.60070
 Alpha  occ. eigenvalues --   -1.60069  -1.23507  -1.23502  -0.77572  -0.77572
 Alpha  occ. eigenvalues --   -0.77570  -0.77570  -0.72027  -0.71992  -0.57637
 Alpha  occ. eigenvalues --   -0.57637  -0.57632  -0.57632
 Alpha virt. eigenvalues --    0.24483   0.25238   0.66028   0.68880   0.68983
 Alpha virt. eigenvalues --    0.68983   0.69046   0.69046   0.74410   0.76143
 Alpha virt. eigenvalues --    0.79042   0.79042   0.79224   0.79224   0.88523

 Mulliken charges and spin densities:
               1          2
     1  O   -0.000479   0.999192
     2  O    0.000479   1.000808
     3  O    0.000479   1.000808
     4  O   -0.000479   0.999192
 Sum of Mulliken charges =  -0.00000   4.00000

 Dipole moment (field-independent basis, Debye):
    X=              0.0000    Y=              0.0000    Z=              0.0000  Tot=              0.0000
 Quadrupole moment (field-independent basis, Debye-Ang):
   XX=            -20.3615   YY=            -20.3615   ZZ=            -20.1203
   XY=              0.0000   XZ=              0.0000   YZ=              0.0000

 -300.1880288\CCSD=-300.1692751\CCSD(T)=-300.2192728\RMSD=5.731e-09\PG=
 Normal termination of Gaussian 16 at Sun Jan 15 00:09:10 2023.
