 Gaussian 16, Revision A.03,
 Gaussian 16:  ES64L-G16RevA.03 25-Dec-2016

 ---------------------------------------------------------------
 #p ROCCSD(T)/cc-pVTZ Guess=Read SCF=(VeryTight,CDIIS,VShift=10)
 ---------------------------------------------------------------

 --------
 O2_O2_74
 --------
 Symbolic Z-matrix:
 Charge =  0 Multiplicity = 5

                         Standard orientation:
 ---------------------------------------------------------------------
 Center     Atomic      Atomic             Coordinates (Angstroms)
 Number     Number       Type             X           Y           Z
 ---------------------------------------------------------------------
      1          8           0        0.000000    0.000000    1.840311
      2          8           0        0.000000    0.000000    3.192691
      3          8           0        0.000000    0.000000   -3.192691
      4          8           0        0.000000    0.000000   -1.840311
 ---------------------------------------------------------------------

 SCF Done:  E(ROHF) =  -299.202890789     A.U. after   12 cycles
 E2 =    -0.1041974775D+01 EUMP2 =    -0.30024486556341D+03
 CCSD(T)
 CCSD(T)= -0.30021948783D+03

 The electronic state is 5-SGG.
 Alpha  occ. eigenvalues --  -20.77289 -20.77289 -20.77227 -20.77227  -1.60083
 Alpha  occ. eigenvalues --   -1.60075  -1.23546  -1.23483  -0.77591  -0.77591
 Alpha  occ. eigenvalues --   -0.77569  -0.77569  -0.72161  -0.71875  -0.57673
 Alpha  occ. eigenvalues --   -0.57673  -0.57617  -0.57617
 Alpha virt. eigenvalues --    0.22905   0.26451   0.59668   0.68619   0.68619
 Alpha virt. eigenvalues --    0.69333   0.69333   0.70513   0.72807   0.78153
 Alpha virt. eigenvalues --    0.78153   0.80190   0.80190   0.86464   0.88480

 Mulliken charges and spin densities:
               1          2
     1  O   -0.001169   0.998334
     2  O    0.001169   1.001666
     3  O    0.001169   1.001666
     4  O   -0.001169   0.998334
 Sum of Mulliken charges =  -0.00000   4.00000

 Dipole moment (field-independent basis, Debye):
    X=              0.0000    Y=             -0.0000    Z=              0.0000  Tot=              0.0000
 Quadrupole moment (field-independent basis, Debye-Ang):
   XX=            -20.3612   YY=            -20.3612   ZZ=            -20.0865
   XY=              0.0000   XZ=              0.0000   YZ=              0.0000

 =-300.1883066\CCSD=-300.1694624\CCSD(T)=-300.2194878\RMSD=3.495e-09\PG
 Normal termination of Gaussian 16 at Sat Jan 14 23:33:22 2023.
