 Gaussian 16, Revision A.03,
 Gaussian 16:  ES64L-G16RevA.03 25-Dec-2016

 ---------------------------------------------------------------
 #p ROCCSD(T)/cc-pVTZ Guess=Read SCF=(VeryTight,CDIIS,VShift=10)
 ---------------------------------------------------------------

 --------
 O2_O2_66
 --------
 Symbolic Z-matrix:
 Charge =  0 Multiplicity = 5

                         Standard orientation:
 ---------------------------------------------------------------------
 Center     Atomic      Atomic             Coordinates (Angstroms)
 Number     Number       Type             X           Y           Z
 ---------------------------------------------------------------------
      1          8           0        0.000000    0.000000    1.727042
      2          8           0        0.000000    0.000000    3.079422
      3          8           0        0.000000    0.000000   -3.079422
      4          8           0        0.000000    0.000000   -1.727042
 ---------------------------------------------------------------------

 SCF Done:  E(ROHF) =  -299.202861461     A.U. after   12 cycles
 E2 =    -0.1042154551D+01 EUMP2 =    -0.30024501601256D+03
 CCSD(T)
 CCSD(T)= -0.30021958065D+03

 The electronic state is 5-SGG.
 Alpha  occ. eigenvalues --  -20.77300 -20.77300 -20.77220 -20.77220  -1.60089
 Alpha  occ. eigenvalues --   -1.60073  -1.23575  -1.23459  -0.77602  -0.77602
 Alpha  occ. eigenvalues --   -0.77562  -0.77562  -0.72254  -0.71788  -0.57695
 Alpha  occ. eigenvalues --   -0.57695  -0.57600  -0.57600
 Alpha virt. eigenvalues --    0.22469   0.26889   0.58600   0.68346   0.68346
 Alpha virt. eigenvalues --    0.69503   0.69503   0.70393   0.72494   0.77609
 Alpha virt. eigenvalues --    0.77609   0.80884   0.80884   0.88408   0.88570

 Mulliken charges and spin densities:
               1          2
     1  O   -0.001616   0.997615
     2  O    0.001616   1.002385
     3  O    0.001616   1.002385
     4  O   -0.001616   0.997615
 Sum of Mulliken charges =   0.00000   4.00000

 Dipole moment (field-independent basis, Debye):
    X=              0.0000    Y=             -0.0000    Z=             -0.0000  Tot=              0.0000
 Quadrupole moment (field-independent basis, Debye-Ang):
   XX=            -20.3611   YY=            -20.3611   ZZ=            -20.0705
   XY=              0.0000   XZ=              0.0000   YZ=              0.0000

 300.1884304\CCSD=-300.1695372\CCSD(T)=-300.2195807\RMSD=5.928e-09\PG=D
 Normal termination of Gaussian 16 at Sat Jan 14 23:24:31 2023.
