 Gaussian 16, Revision A.03,
 Gaussian 16:  ES64L-G16RevA.03 25-Dec-2016

 ---------------------------------------------------------------
 #p ROCCSD(T)/cc-pVTZ Guess=Read SCF=(VeryTight,CDIIS,VShift=10)
 ---------------------------------------------------------------

 --------
 O2_O2_40
 --------
 Symbolic Z-matrix:
 Charge =  0 Multiplicity = 5

                         Standard orientation:
 ---------------------------------------------------------------------
 Center     Atomic      Atomic             Coordinates (Angstroms)
 Number     Number       Type             X           Y           Z
 ---------------------------------------------------------------------
      1          8           0        0.000000    0.000000    1.358919
      2          8           0        0.000000    0.000000    2.711299
      3          8           0        0.000000    0.000000   -2.711299
      4          8           0        0.000000    0.000000   -1.358919
 ---------------------------------------------------------------------

 SCF Done:  E(ROHF) =  -299.201544727     A.U. after   14 cycles
 E2 =    -0.1043452769D+01 EUMP2 =    -0.30024499749584D+03
 CCSD(T)
 CCSD(T)= -0.30021921009D+03

 The electronic state is 5-SGG.
 Alpha  occ. eigenvalues --  -20.77432 -20.77432 -20.76983 -20.76983  -1.60133
 Alpha  occ. eigenvalues --   -1.59986  -1.23939  -1.23103  -0.77682  -0.77682
 Alpha  occ. eigenvalues --   -0.77435  -0.77435  -0.73132  -0.70901  -0.57878
 Alpha  occ. eigenvalues --   -0.57878  -0.57353  -0.57353
 Alpha virt. eigenvalues --    0.22260   0.28813   0.65673   0.66496   0.66496
 Alpha virt. eigenvalues --    0.68690   0.70178   0.70178   0.71429   0.75323
 Alpha virt. eigenvalues --    0.75323   0.85588   0.85588   0.88127   0.88624

 Mulliken charges and spin densities:
               1          2
     1  O   -0.004503   0.985448
     2  O    0.004503   1.014552
     3  O    0.004503   1.014552
     4  O   -0.004503   0.985448
 Sum of Mulliken charges =  -0.00000   4.00000

 Dipole moment (field-independent basis, Debye):
    X=              0.0000    Y=             -0.0000    Z=              0.0000  Tot=              0.0000
 Quadrupole moment (field-independent basis, Debye-Ang):
   XX=            -20.3597   YY=            -20.3597   ZZ=            -19.8796
   XY=              0.0000   XZ=              0.0000   YZ=              0.0000

 =-300.1882707\CCSD=-300.16902\CCSD(T)=-300.2192101\RMSD=3.219e-09\PG=D
 Normal termination of Gaussian 16 at Sat Jan 14 22:53:11 2023.
