 Gaussian 16, Revision A.03,
 Gaussian 16:  ES64L-G16RevA.03 25-Dec-2016

 ---------------------------------------------------------------
 #p ROCCSD(T)/cc-pVTZ Guess=Read SCF=(VeryTight,CDIIS,VShift=10)
 ---------------------------------------------------------------

 --------
 O2_O2_70
 --------
 Symbolic Z-matrix:
 Charge =  0 Multiplicity = 5

                         Standard orientation:
 ---------------------------------------------------------------------
 Center     Atomic      Atomic             Coordinates (Angstroms)
 Number     Number       Type             X           Y           Z
 ---------------------------------------------------------------------
      1          8           0        0.000000    0.000000    1.783676
      2          8           0        0.000000    0.000000    3.136056
      3          8           0        0.000000    0.000000   -3.136056
      4          8           0        0.000000    0.000000   -1.783676
 ---------------------------------------------------------------------

 SCF Done:  E(ROHF) =  -299.202881259     A.U. after   12 cycles
 E2 =    -0.1042056757D+01 EUMP2 =    -0.30024493801604D+03
 CCSD(T)
 CCSD(T)= -0.30021953344D+03

 The electronic state is 5-SGG.
 Alpha  occ. eigenvalues --  -20.77294 -20.77294 -20.77225 -20.77225  -1.60086
 Alpha  occ. eigenvalues --   -1.60074  -1.23558  -1.23473  -0.77596  -0.77596
 Alpha  occ. eigenvalues --   -0.77567  -0.77567  -0.72202  -0.71837  -0.57682
 Alpha  occ. eigenvalues --   -0.57682  -0.57610  -0.57610
 Alpha virt. eigenvalues --    0.22672   0.26664   0.59006   0.68497   0.68497
 Alpha virt. eigenvalues --    0.69413   0.69413   0.70480   0.72645   0.77901
 Alpha virt. eigenvalues --    0.77901   0.80501   0.80501   0.88393   0.88562

 Mulliken charges and spin densities:
               1          2
     1  O   -0.001374   0.998024
     2  O    0.001374   1.001976
     3  O    0.001374   1.001976
     4  O   -0.001374   0.998024
 Sum of Mulliken charges =  -0.00000   4.00000

 Dipole moment (field-independent basis, Debye):
    X=              0.0000    Y=              0.0000    Z=             -0.0000  Tot=              0.0000
 Quadrupole moment (field-independent basis, Debye-Ang):
   XX=            -20.3612   YY=            -20.3612   ZZ=            -20.0791
   XY=              0.0000   XZ=              0.0000   YZ=              0.0000

 300.1883665\CCSD=-300.1694999\CCSD(T)=-300.2195334\RMSD=4.206e-09\PG=D
 Normal termination of Gaussian 16 at Sat Jan 14 23:28:57 2023.
