 Gaussian 16, Revision A.03,
 Gaussian 16:  ES64L-G16RevA.03 25-Dec-2016

 ---------------------------------------------------------------
 #p ROCCSD(T)/cc-pVTZ Guess=Read SCF=(VeryTight,CDIIS,VShift=10)
 ---------------------------------------------------------------

 --------
 O2_O2_92
 --------
 Symbolic Z-matrix:
 Charge =  0 Multiplicity = 5

                         Standard orientation:
 ---------------------------------------------------------------------
 Center     Atomic      Atomic             Coordinates (Angstroms)
 Number     Number       Type             X           Y           Z
 ---------------------------------------------------------------------
      1          8           0        0.000000    0.000000    2.095165
      2          8           0        0.000000    0.000000    3.447545
      3          8           0        0.000000    0.000000   -3.447545
      4          8           0        0.000000    0.000000   -2.095165
 ---------------------------------------------------------------------

 SCF Done:  E(ROHF) =  -299.202880273     A.U. after    8 cycles
 E2 =    -0.1041749101D+01 EUMP2 =    -0.30024462937389D+03
 CCSD(T)
 CCSD(T)= -0.30021933260D+03

 The electronic state is 5-SGG.
 Alpha  occ. eigenvalues --  -20.77274 -20.77274 -20.77227 -20.77227  -1.60073
 Alpha  occ. eigenvalues --   -1.60072  -1.23515  -1.23500  -0.77577  -0.77577
 Alpha  occ. eigenvalues --   -0.77571  -0.77571  -0.72059  -0.71966  -0.57646
 Alpha  occ. eigenvalues --   -0.57646  -0.57631  -0.57631
 Alpha virt. eigenvalues --    0.23964   0.25647   0.63778   0.68909   0.68909
 Alpha virt. eigenvalues --    0.69110   0.69110   0.69912   0.73702   0.78448
 Alpha virt. eigenvalues --    0.78845   0.78845   0.79422   0.79422   0.88511

 Mulliken charges and spin densities:
               1          2
     1  O   -0.000665   0.998967
     2  O    0.000665   1.001033
     3  O    0.000665   1.001033
     4  O   -0.000665   0.998967
 Sum of Mulliken charges =  -0.00000   4.00000

 Dipole moment (field-independent basis, Debye):
    X=              0.0000    Y=              0.0000    Z=              0.0000  Tot=              0.0000
 Quadrupole moment (field-independent basis, Debye-Ang):
   XX=            -20.3614   YY=            -20.3614   ZZ=            -20.1089
   XY=              0.0000   XZ=              0.0000   YZ=              0.0000

 00.1881079\CCSD=-300.1693284\CCSD(T)=-300.2193326\RMSD=1.667e-09\PG=D*
 Normal termination of Gaussian 16 at Sat Jan 14 23:53:08 2023.
