 Gaussian 16, Revision A.03,
 Gaussian 16:  ES64L-G16RevA.03 25-Dec-2016

 ---------------------------------------------------------------
 #p ROCCSD(T)/cc-pVTZ Guess=Read SCF=(VeryTight,CDIIS,VShift=10)
 ---------------------------------------------------------------

 --------
 O2_O2_35
 --------
 Symbolic Z-matrix:
 Charge =  0 Multiplicity = 5

                         Standard orientation:
 ---------------------------------------------------------------------
 Center     Atomic      Atomic             Coordinates (Angstroms)
 Number     Number       Type             X           Y           Z
 ---------------------------------------------------------------------
      1          8           0        0.000000    0.000000    1.288126
      2          8           0        0.000000    0.000000    2.640506
      3          8           0        0.000000    0.000000   -2.640506
      4          8           0        0.000000    0.000000   -1.288126
 ---------------------------------------------------------------------

 SCF Done:  E(ROHF) =  -299.200418619     A.U. after   12 cycles
 E2 =    -0.1043892345D+01 EUMP2 =    -0.30024431096439D+03
 CCSD(T)
 CCSD(T)= -0.30021845455D+03

 The electronic state is 5-SGG.
 Alpha  occ. eigenvalues --  -20.77520 -20.77520 -20.76806 -20.76806  -1.60151
 Alpha  occ. eigenvalues --   -1.59930  -1.24125  -1.22914  -0.77712  -0.77712
 Alpha  occ. eigenvalues --   -0.77368  -0.77368  -0.73495  -0.70504  -0.57951
 Alpha  occ. eigenvalues --   -0.57951  -0.57221  -0.57221
 Alpha virt. eigenvalues --    0.22369   0.29363   0.66119   0.66119   0.68216
 Alpha virt. eigenvalues --    0.69389   0.70268   0.70268   0.71075   0.74975
 Alpha virt. eigenvalues --    0.74975   0.86903   0.86903   0.88033   0.88639

 Mulliken charges and spin densities:
               1          2
     1  O   -0.006298   0.976797
     2  O    0.006298   1.023203
     3  O    0.006298   1.023203
     4  O   -0.006298   0.976797
 Sum of Mulliken charges =  -0.00000   4.00000

 Dipole moment (field-independent basis, Debye):
    X=              0.0000    Y=              0.0000    Z=              0.0000  Tot=              0.0000
 Quadrupole moment (field-independent basis, Debye-Ang):
   XX=            -20.3589   YY=            -20.3589   ZZ=            -19.7545
   XY=              0.0000   XZ=              0.0000   YZ=              0.0000

 300.1875897\CCSD=-300.1682046\CCSD(T)=-300.2184545\RMSD=1.229e-09\PG=D
 Normal termination of Gaussian 16 at Sat Jan 14 22:47:38 2023.
