 Gaussian 16, Revision A.03,
 Gaussian 16:  ES64L-G16RevA.03 25-Dec-2016

 ---------------------------------------------------------------
 #p ROCCSD(T)/cc-pVTZ Guess=Read SCF=(VeryTight,CDIIS,VShift=10)
 ---------------------------------------------------------------

 --------
 O2_O2_60
 --------
 Symbolic Z-matrix:
 Charge =  0 Multiplicity = 5

                         Standard orientation:
 ---------------------------------------------------------------------
 Center     Atomic      Atomic             Coordinates (Angstroms)
 Number     Number       Type             X           Y           Z
 ---------------------------------------------------------------------
      1          8           0        0.000000    0.000000    1.642091
      2          8           0        0.000000    0.000000    2.994471
      3          8           0        0.000000    0.000000   -2.994471
      4          8           0        0.000000    0.000000   -1.642091
 ---------------------------------------------------------------------

 SCF Done:  E(ROHF) =  -299.202799906     A.U. after   13 cycles
 E2 =    -0.1042337191D+01 EUMP2 =    -0.30024513709695D+03
 CCSD(T)
 CCSD(T)= -0.30021964673D+03

 The electronic state is 5-SGG.
 Alpha  occ. eigenvalues --  -20.77312 -20.77312 -20.77206 -20.77206  -1.60095
 Alpha  occ. eigenvalues --   -1.60067  -1.23611  -1.23427  -0.77613  -0.77613
 Alpha  occ. eigenvalues --   -0.77552  -0.77552  -0.72359  -0.71687  -0.57718
 Alpha  occ. eigenvalues --   -0.57718  -0.57576  -0.57576
 Alpha virt. eigenvalues --    0.22248   0.27251   0.58610   0.68051   0.68051
 Alpha virt. eigenvalues --    0.69656   0.69656   0.70163   0.72282   0.77108
 Alpha virt. eigenvalues --    0.77108   0.81614   0.81614   0.88371   0.88582

 Mulliken charges and spin densities:
               1          2
     1  O   -0.002042   0.996715
     2  O    0.002042   1.003285
     3  O    0.002042   1.003285
     4  O   -0.002042   0.996715
 Sum of Mulliken charges =  -0.00000   4.00000

 Dipole moment (field-independent basis, Debye):
    X=              0.0000    Y=              0.0000    Z=              0.0000  Tot=              0.0000
 Quadrupole moment (field-independent basis, Debye-Ang):
   XX=            -20.3609   YY=            -20.3609   ZZ=            -20.0538
   XY=              0.0000   XZ=              0.0000   YZ=              0.0000

 =-300.1885269\CCSD=-300.1695843\CCSD(T)=-300.2196467\RMSD=7.512e-09\PG
 Normal termination of Gaussian 16 at Sat Jan 14 23:17:20 2023.
