 Gaussian 16, Revision A.03,
 Gaussian 16:  ES64L-G16RevA.03 25-Dec-2016

 ---------------------------------------------------------------
 #p ROCCSD(T)/cc-pVTZ Guess=Read SCF=(VeryTight,CDIIS,VShift=10)
 ---------------------------------------------------------------

 --------
 O2_O2_20
 --------
 Symbolic Z-matrix:
 Charge =  0 Multiplicity = 5

                         Standard orientation:
 ---------------------------------------------------------------------
 Center     Atomic      Atomic             Coordinates (Angstroms)
 Number     Number       Type             X           Y           Z
 ---------------------------------------------------------------------
      1          8           0        0.000000    0.000000    1.075747
      2          8           0        0.000000    0.000000    2.428127
      3          8           0        0.000000    0.000000   -2.428127
      4          8           0        0.000000    0.000000   -1.075747
 ---------------------------------------------------------------------

 SCF Done:  E(ROHF) =  -299.188544208     A.U. after   15 cycles
 E2 =    -0.1043894786D+01 EUMP2 =    -0.30023243899409D+03
 CCSD(T)
 CCSD(T)= -0.30020859369D+03

 The electronic state is 5-SGG.
 Alpha  occ. eigenvalues --  -20.78207 -20.78207 -20.75280 -20.75279  -1.60262
 Alpha  occ. eigenvalues --   -1.59551  -1.25297  -1.21652  -0.77893  -0.77893
 Alpha  occ. eigenvalues --   -0.77052  -0.77052  -0.75300  -0.68187  -0.58279
 Alpha  occ. eigenvalues --   -0.58279  -0.56203  -0.56203
 Alpha virt. eigenvalues --    0.22744   0.31990   0.66238   0.66238   0.66546
 Alpha virt. eigenvalues --    0.69251   0.70290   0.70290   0.74411   0.74411
 Alpha virt. eigenvalues --    0.84280   0.87668   0.89398   0.91148   0.91148

 Mulliken charges and spin densities:
               1          2
     1  O   -0.024265   0.902972
     2  O    0.024265   1.097028
     3  O    0.024265   1.097028
     4  O   -0.024265   0.902972
 Sum of Mulliken charges =  -0.00000   4.00000

 Dipole moment (field-independent basis, Debye):
    X=              0.0000    Y=             -0.0000    Z=              0.0000  Tot=              0.0000
 Quadrupole moment (field-independent basis, Debye-Ang):
   XX=            -20.3453   YY=            -20.3453   ZZ=            -18.7921
   XY=              0.0000   XZ=              0.0000   YZ=              0.0000

 300.1778921\CCSD=-300.1580527\CCSD(T)=-300.2085937\RMSD=2.179e-09\PG=D
 Normal termination of Gaussian 16 at Sat Jan 14 22:30:12 2023.
