 Gaussian 16, Revision A.03,
 Gaussian 16:  ES64L-G16RevA.03 25-Dec-2016

 ---------------------------------------------------------------
 #p ROCCSD(T)/cc-pVTZ Guess=Read SCF=(VeryTight,CDIIS,VShift=10)
 ---------------------------------------------------------------

 --------
 O2_O2_62
 --------
 Symbolic Z-matrix:
 Charge =  0 Multiplicity = 5

                         Standard orientation:
 ---------------------------------------------------------------------
 Center     Atomic      Atomic             Coordinates (Angstroms)
 Number     Number       Type             X           Y           Z
 ---------------------------------------------------------------------
      1          8           0        0.000000    0.000000    1.670408
      2          8           0        0.000000    0.000000    3.022788
      3          8           0        0.000000    0.000000   -3.022788
      4          8           0        0.000000    0.000000   -1.670408
 ---------------------------------------------------------------------

 SCF Done:  E(ROHF) =  -299.202826019     A.U. after   14 cycles
 E2 =    -0.1042270926D+01 EUMP2 =    -0.30024509694531D+03
 CCSD(T)
 CCSD(T)= -0.30021962624D+03

 The electronic state is 5-SGG.
 Alpha  occ. eigenvalues --  -20.77308 -20.77308 -20.77212 -20.77212  -1.60093
 Alpha  occ. eigenvalues --   -1.60070  -1.23597  -1.23439  -0.77609  -0.77609
 Alpha  occ. eigenvalues --   -0.77556  -0.77556  -0.72320  -0.71725  -0.57709
 Alpha  occ. eigenvalues --   -0.57709  -0.57585  -0.57585
 Alpha virt. eigenvalues --    0.22309   0.27127   0.58515   0.68159   0.68159
 Alpha virt. eigenvalues --    0.69603   0.69603   0.70253   0.72352   0.77282
 Alpha virt. eigenvalues --    0.77282   0.81349   0.81349   0.88386   0.88578

 Mulliken charges and spin densities:
               1          2
     1  O   -0.001893   0.997062
     2  O    0.001893   1.002938
     3  O    0.001893   1.002938
     4  O   -0.001893   0.997062
 Sum of Mulliken charges =  -0.00000   4.00000

 Dipole moment (field-independent basis, Debye):
    X=              0.0000    Y=             -0.0000    Z=              0.0000  Tot=              0.0000
 Quadrupole moment (field-independent basis, Debye-Ang):
   XX=            -20.3609   YY=            -20.3609   ZZ=            -20.0600
   XY=              0.0000   XZ=              0.0000   YZ=              0.0000

 300.1884955\CCSD=-300.1695707\CCSD(T)=-300.2196262\RMSD=1.330e-09\PG=D
 Normal termination of Gaussian 16 at Sat Jan 14 23:19:45 2023.
