 Gaussian 16, Revision A.03,
 Gaussian 16:  ES64L-G16RevA.03 25-Dec-2016

 ---------------------------------------------------------------
 #p ROCCSD(T)/cc-pVTZ Guess=Read SCF=(VeryTight,CDIIS,VShift=10)
 ---------------------------------------------------------------

 --------
 O2_O2_57
 --------
 Symbolic Z-matrix:
 Charge =  0 Multiplicity = 5

                         Standard orientation:
 ---------------------------------------------------------------------
 Center     Atomic      Atomic             Coordinates (Angstroms)
 Number     Number       Type             X           Y           Z
 ---------------------------------------------------------------------
      1          8           0        0.000000    0.000000    1.599615
      2          8           0        0.000000    0.000000    2.951995
      3          8           0        0.000000    0.000000   -2.951995
      4          8           0        0.000000    0.000000   -1.599615
 ---------------------------------------------------------------------

 SCF Done:  E(ROHF) =  -299.202746053     A.U. after   12 cycles
 E2 =    -0.1042448237D+01 EUMP2 =    -0.30024519429054D+03
 CCSD(T)
 CCSD(T)= -0.30021967152D+03

 The electronic state is 5-SGG.
 Alpha  occ. eigenvalues --  -20.77320 -20.77320 -20.77195 -20.77195  -1.60098
 Alpha  occ. eigenvalues --   -1.60063  -1.23636  -1.23404  -0.77619  -0.77619
 Alpha  occ. eigenvalues --   -0.77544  -0.77544  -0.72428  -0.71621  -0.57732
 Alpha  occ. eigenvalues --   -0.57732  -0.57560  -0.57560
 Alpha virt. eigenvalues --    0.22180   0.27444   0.58940   0.67869   0.67869
 Alpha virt. eigenvalues --    0.69737   0.69737   0.70007   0.72178   0.76836
 Alpha virt. eigenvalues --    0.76836   0.82057   0.82057   0.88346   0.88588

 Mulliken charges and spin densities:
               1          2
     1  O   -0.002276   0.996070
     2  O    0.002276   1.003930
     3  O    0.002276   1.003930
     4  O   -0.002276   0.996070
 Sum of Mulliken charges =  -0.00000   4.00000

 Dipole moment (field-independent basis, Debye):
    X=              0.0000    Y=             -0.0000    Z=             -0.0000  Tot=              0.0000
 Quadrupole moment (field-independent basis, Debye-Ang):
   XX=            -20.3608   YY=            -20.3608   ZZ=            -20.0427
   XY=              0.0000   XZ=              0.0000   YZ=              0.0000

 =-300.1885699\CCSD=-300.1695972\CCSD(T)=-300.2196715\RMSD=1.816e-09\PG
 Normal termination of Gaussian 16 at Sat Jan 14 23:13:58 2023.
