 Gaussian 16, Revision A.03,
 Gaussian 16:  ES64L-G16RevA.03 25-Dec-2016

 ---------------------------------------------------------------
 #p ROCCSD(T)/cc-pVTZ Guess=Read SCF=(VeryTight,CDIIS,VShift=10)
 ---------------------------------------------------------------

 --------
 O2_O2_55
 --------
 Symbolic Z-matrix:
 Charge =  0 Multiplicity = 5

                         Standard orientation:
 ---------------------------------------------------------------------
 Center     Atomic      Atomic             Coordinates (Angstroms)
 Number     Number       Type             X           Y           Z
 ---------------------------------------------------------------------
      1          8           0        0.000000    0.000000    1.571298
      2          8           0        0.000000    0.000000    2.923678
      3          8           0        0.000000    0.000000   -2.923678
      4          8           0        0.000000    0.000000   -1.571298
 ---------------------------------------------------------------------

 SCF Done:  E(ROHF) =  -299.202697346     A.U. after    9 cycles
 E2 =    -0.1042530802D+01 EUMP2 =    -0.30024522814854D+03
 CCSD(T)
 CCSD(T)= -0.30021968176D+03

 The electronic state is 5-SGG.
 Alpha  occ. eigenvalues --  -20.77327 -20.77327 -20.77184 -20.77184  -1.60101
 Alpha  occ. eigenvalues --   -1.60059  -1.23655  -1.23385  -0.77624  -0.77624
 Alpha  occ. eigenvalues --   -0.77537  -0.77537  -0.72480  -0.71569  -0.57744
 Alpha  occ. eigenvalues --   -0.57744  -0.57547  -0.57547
 Alpha virt. eigenvalues --    0.22152   0.27579   0.59292   0.67735   0.67735
 Alpha virt. eigenvalues --    0.69793   0.69793   0.69887   0.72107   0.76650
 Alpha virt. eigenvalues --    0.76650   0.82383   0.82383   0.88327   0.88592

 Mulliken charges and spin densities:
               1          2
     1  O   -0.002463   0.995478
     2  O    0.002463   1.004522
     3  O    0.002463   1.004522
     4  O   -0.002463   0.995478
 Sum of Mulliken charges =  -0.00000   4.00000

 Dipole moment (field-independent basis, Debye):
    X=              0.0000    Y=              0.0000    Z=              0.0000  Tot=              0.0000
 Quadrupole moment (field-independent basis, Debye-Ang):
   XX=            -20.3607   YY=            -20.3607   ZZ=            -20.0326
   XY=              0.0000   XZ=              0.0000   YZ=              0.0000

 =-300.1885935\CCSD=-300.1695986\CCSD(T)=-300.2196818\RMSD=9.133e-09\PG
 Normal termination of Gaussian 16 at Sat Jan 14 23:11:42 2023.
