 Gaussian 16, Revision A.03,
 Gaussian 16:  ES64L-G16RevA.03 25-Dec-2016

 ---------------------------------------------------------------
 #p ROCCSD(T)/cc-pVTZ Guess=Read SCF=(VeryTight,CDIIS,VShift=10)
 ---------------------------------------------------------------

 --------
 O2_O2_14
 --------
 Symbolic Z-matrix:
 Charge =  0 Multiplicity = 5

                         Standard orientation:
 ---------------------------------------------------------------------
 Center     Atomic      Atomic             Coordinates (Angstroms)
 Number     Number       Type             X           Y           Z
 ---------------------------------------------------------------------
      1          8           0        0.000000    0.000000    0.990795
      2          8           0        0.000000    0.000000    2.343176
      3          8           0        0.000000    0.000000   -2.343176
      4          8           0        0.000000    0.000000   -0.990795
 ---------------------------------------------------------------------

 SCF Done:  E(ROHF) =  -299.174912285     A.U. after   15 cycles
 E2 =    -0.1040220402D+01 EUMP2 =    -0.30021513268735D+03
 CCSD(T)
 CCSD(T)= -0.30019624860D+03

 The electronic state is 5-SGG.
 Alpha  occ. eigenvalues --  -20.78713 -20.78713 -20.73924 -20.73923  -1.60371
 Alpha  occ. eigenvalues --   -1.59285  -1.26244  -1.20606  -0.78086  -0.78086
 Alpha  occ. eigenvalues --   -0.76967  -0.76967  -0.76431  -0.66424  -0.58449
 Alpha  occ. eigenvalues --   -0.58449  -0.55192  -0.55192
 Alpha virt. eigenvalues --    0.22883   0.33870   0.65695   0.67036   0.67036
 Alpha virt. eigenvalues --    0.68214   0.70161   0.70161   0.74588   0.74588
 Alpha virt. eigenvalues --    0.87037   0.87473   0.92884   0.92884   0.93477

 Mulliken charges and spin densities:
               1          2
     1  O   -0.041692   0.838767
     2  O    0.041692   1.161233
     3  O    0.041692   1.161233
     4  O   -0.041692   0.838767
 Sum of Mulliken charges =  -0.00000   4.00000

 Dipole moment (field-independent basis, Debye):
    X=              0.0000    Y=              0.0000    Z=             -0.0000  Tot=              0.0000
 Quadrupole moment (field-independent basis, Debye-Ang):
   XX=            -20.3251   YY=            -20.3251   ZZ=            -18.0680
   XY=              0.0000   XZ=             -0.0000   YZ=              0.0000

 =-300.1652243\CCSD=-300.1455735\CCSD(T)=-300.1962486\RMSD=4.889e-09\PG
 Normal termination of Gaussian 16 at Sat Jan 14 22:23:21 2023.
