 Gaussian 16, Revision A.03,
 Gaussian 16:  ES64L-G16RevA.03 25-Dec-2016

 ---------------------------------------------------------------
 #p ROCCSD(T)/cc-pVTZ Guess=Read SCF=(VeryTight,CDIIS,VShift=10)
 ---------------------------------------------------------------

 --------
 O2_O2_41
 --------
 Symbolic Z-matrix:
 Charge =  0 Multiplicity = 5

                         Standard orientation:
 ---------------------------------------------------------------------
 Center     Atomic      Atomic             Coordinates (Angstroms)
 Number     Number       Type             X           Y           Z
 ---------------------------------------------------------------------
      1          8           0        0.000000    0.000000    1.373078
      2          8           0        0.000000    0.000000    2.725458
      3          8           0        0.000000    0.000000   -2.725458
      4          8           0        0.000000    0.000000   -1.373078
 ---------------------------------------------------------------------

 SCF Done:  E(ROHF) =  -299.201700267     A.U. after   12 cycles
 E2 =    -0.1043371978D+01 EUMP2 =    -0.30024507224446D+03
 CCSD(T)
 CCSD(T)= -0.30021930278D+03

 The electronic state is 5-SGG.
 Alpha  occ. eigenvalues --  -20.77420 -20.77420 -20.77009 -20.77008  -1.60130
 Alpha  occ. eigenvalues --   -1.59995  -1.23909  -1.23134  -0.77676  -0.77676
 Alpha  occ. eigenvalues --   -0.77446  -0.77446  -0.73070  -0.70967  -0.57866
 Alpha  occ. eigenvalues --   -0.57866  -0.57374  -0.57374
 Alpha virt. eigenvalues --    0.22241   0.28714   0.65028   0.66581   0.66581
 Alpha virt. eigenvalues --    0.68782   0.70156   0.70156   0.71489   0.75400
 Alpha virt. eigenvalues --    0.75400   0.85337   0.85337   0.88144   0.88622

 Mulliken charges and spin densities:
               1          2
     1  O   -0.004256   0.986701
     2  O    0.004256   1.013299
     3  O    0.004256   1.013299
     4  O   -0.004256   0.986701
 Sum of Mulliken charges =  -0.00000   4.00000

 Dipole moment (field-independent basis, Debye):
    X=              0.0000    Y=             -0.0000    Z=             -0.0000  Tot=              0.0000
 Quadrupole moment (field-independent basis, Debye-Ang):
   XX=            -20.3598   YY=            -20.3598   ZZ=            -19.8981
   XY=              0.0000   XZ=              0.0000   YZ=              0.0000

 =-300.1883501\CCSD=-300.1691228\CCSD(T)=-300.2193028\RMSD=7.145e-10\PG
 Normal termination of Gaussian 16 at Sat Jan 14 22:54:18 2023.
