 Gaussian 16, Revision A.03,
 Gaussian 16:  ES64L-G16RevA.03 25-Dec-2016

 ---------------------------------------------------------------
 #p ROCCSD(T)/cc-pVTZ Guess=Read SCF=(VeryTight,CDIIS,VShift=10)
 ---------------------------------------------------------------

 --------
 O2_O2_81
 --------
 Symbolic Z-matrix:
 Charge =  0 Multiplicity = 5

                         Standard orientation:
 ---------------------------------------------------------------------
 Center     Atomic      Atomic             Coordinates (Angstroms)
 Number     Number       Type             X           Y           Z
 ---------------------------------------------------------------------
      1          8           0        0.000000    0.000000    1.939421
      2          8           0        0.000000    0.000000    3.291801
      3          8           0        0.000000    0.000000   -3.291801
      4          8           0        0.000000    0.000000   -1.939421
 ---------------------------------------------------------------------

 SCF Done:  E(ROHF) =  -299.202892674     A.U. after   12 cycles
 E2 =    -0.1041862997D+01 EUMP2 =    -0.30024475567118D+03
 CCSD(T)
 CCSD(T)= -0.30021941652D+03

 The electronic state is 5-SGG.
 Alpha  occ. eigenvalues --  -20.77281 -20.77281 -20.77229 -20.77229  -1.60079
 Alpha  occ. eigenvalues --   -1.60074  -1.23530  -1.23493  -0.77585  -0.77585
 Alpha  occ. eigenvalues --   -0.77571  -0.77571  -0.72109  -0.71923  -0.57659
 Alpha  occ. eigenvalues --   -0.57659  -0.57626  -0.57626
 Alpha virt. eigenvalues --    0.23343   0.26106   0.61211   0.68772   0.68772
 Alpha virt. eigenvalues --    0.69222   0.69222   0.70428   0.73125   0.78502
 Alpha virt. eigenvalues --    0.78502   0.79788   0.79788   0.82522   0.88491

 Mulliken charges and spin densities:
               1          2
     1  O   -0.000898   0.998710
     2  O    0.000898   1.001290
     3  O    0.000898   1.001290
     4  O   -0.000898   0.998710
 Sum of Mulliken charges =  -0.00000   4.00000

 Dipole moment (field-independent basis, Debye):
    X=              0.0000    Y=             -0.0000    Z=             -0.0000  Tot=              0.0000
 Quadrupole moment (field-independent basis, Debye-Ang):
   XX=            -20.3613   YY=            -20.3613   ZZ=            -20.0975
   XY=              0.0000   XZ=              0.0000   YZ=              0.0000

 =-300.1882149\CCSD=-300.1694019\CCSD(T)=-300.2194165\RMSD=8.888e-09\PG
 Normal termination of Gaussian 16 at Sat Jan 14 23:41:12 2023.
