 Gaussian 16, Revision A.03,
 Gaussian 16:  ES64L-G16RevA.03 25-Dec-2016

 ---------------------------------------------------------------
 #p ROCCSD(T)/cc-pVTZ Guess=Read SCF=(VeryTight,CDIIS,VShift=10)
 ---------------------------------------------------------------

 ---------
 O2_O2_117
 ---------
 Symbolic Z-matrix:
 Charge =  0 Multiplicity = 5

                         Standard orientation:
 ---------------------------------------------------------------------
 Center     Atomic      Atomic             Coordinates (Angstroms)
 Number     Number       Type             X           Y           Z
 ---------------------------------------------------------------------
      1          8           0        0.000000    0.000000    2.449130
      2          8           0        0.000000    0.000000    3.801510
      3          8           0        0.000000    0.000000   -3.801510
      4          8           0        0.000000    0.000000   -2.449130
 ---------------------------------------------------------------------

 SCF Done:  E(ROHF) =  -299.202862501     A.U. after    7 cycles
 E2 =    -0.1041636653D+01 EUMP2 =    -0.30024449915470D+03
 CCSD(T)
 CCSD(T)= -0.30021924908D+03

 The electronic state is 5-SGG.
 Alpha  occ. eigenvalues --  -20.77265 -20.77265 -20.77225 -20.77225  -1.60068
 Alpha  occ. eigenvalues --   -1.60068  -1.23503  -1.23502  -0.77569  -0.77569
 Alpha  occ. eigenvalues --   -0.77568  -0.77568  -0.72015  -0.72000  -0.57634
 Alpha  occ. eigenvalues --   -0.57634  -0.57632  -0.57632
 Alpha virt. eigenvalues --    0.24697   0.25051   0.66913   0.68238   0.69004
 Alpha virt. eigenvalues --    0.69004   0.69028   0.69028   0.74783   0.75501
 Alpha virt. eigenvalues --    0.79101   0.79101   0.79168   0.79168   0.88523

 Mulliken charges and spin densities:
               1          2
     1  O   -0.000395   0.999296
     2  O    0.000395   1.000704
     3  O    0.000395   1.000704
     4  O   -0.000395   0.999296
 Sum of Mulliken charges =  -0.00000   4.00000

 Dipole moment (field-independent basis, Debye):
    X=              0.0000    Y=             -0.0000    Z=             -0.0000  Tot=              0.0000
 Quadrupole moment (field-independent basis, Debye-Ang):
   XX=            -20.3615   YY=            -20.3615   ZZ=            -20.1255
   XY=              0.0000   XZ=              0.0000   YZ=              0.0000

 Q=-300.1879954\CCSD=-300.1692541\CCSD(T)=-300.2192491\RMSD=7.529e-10\P
 Normal termination of Gaussian 16 at Sun Jan 15 00:20:46 2023.
