 Gaussian 16, Revision A.03,
 Gaussian 16:  ES64L-G16RevA.03 25-Dec-2016

 ---------------------------------------------------------------
 #p ROCCSD(T)/cc-pVTZ Guess=Read SCF=(VeryTight,CDIIS,VShift=10)
 ---------------------------------------------------------------

 ---------
 O2_O2_169
 ---------
 Symbolic Z-matrix:
 Charge =  0 Multiplicity = 5

                         Standard orientation:
 ---------------------------------------------------------------------
 Center     Atomic      Atomic             Coordinates (Angstroms)
 Number     Number       Type             X           Y           Z
 ---------------------------------------------------------------------
      1          8           0        0.000000    0.000000    3.185376
      2          8           0        0.000000    0.000000    4.537756
      3          8           0        0.000000    0.000000   -4.537756
      4          8           0        0.000000    0.000000   -3.185376
 ---------------------------------------------------------------------

 SCF Done:  E(ROHF) =  -299.202861619     A.U. after   13 cycles
 E2 =    -0.1041575962D+01 EUMP2 =    -0.30024443758132D+03
 CCSD(T)
 CCSD(T)= -0.30021921461D+03

 The electronic state is 5-SGG.
 Alpha  occ. eigenvalues --  -20.77258 -20.77258 -20.77224 -20.77224  -1.60064
 Alpha  occ. eigenvalues --   -1.60064  -1.23499  -1.23499  -0.77565  -0.77565
 Alpha  occ. eigenvalues --   -0.77565  -0.77565  -0.72003  -0.72003  -0.57629
 Alpha  occ. eigenvalues --   -0.57629  -0.57629  -0.57629
 Alpha virt. eigenvalues --    0.24881   0.24884   0.67608   0.67616   0.69019
 Alpha virt. eigenvalues --    0.69019   0.69019   0.69019   0.75114   0.75118
 Alpha virt. eigenvalues --    0.79138   0.79138   0.79138   0.79138   0.88527

 Mulliken charges and spin densities:
               1          2
     1  O   -0.000147   0.999735
     2  O    0.000147   1.000265
     3  O    0.000147   1.000265
     4  O   -0.000147   0.999735
 Sum of Mulliken charges =  -0.00000   4.00000

 Dipole moment (field-independent basis, Debye):
    X=              0.0000    Y=              0.0000    Z=             -0.0000  Tot=              0.0000
 Quadrupole moment (field-independent basis, Debye-Ang):
   XX=            -20.3615   YY=            -20.3615   ZZ=            -20.1435
   XY=              0.0000   XZ=              0.0000   YZ=              0.0000

 Q=-300.1879417\CCSD=-300.169224\CCSD(T)=-300.2192146\RMSD=5.412e-09\PG
 Normal termination of Gaussian 16 at Sun Jan 15 01:18:44 2023.
