 Gaussian 16, Revision A.03,
 Gaussian 16:  ES64L-G16RevA.03 25-Dec-2016

 ---------------------------------------------------------------
 #p ROCCSD(T)/cc-pVTZ Guess=Read SCF=(VeryTight,CDIIS,VShift=10)
 ---------------------------------------------------------------

 -------
 O2_O2_4
 -------
 Symbolic Z-matrix:
 Charge =  0 Multiplicity = 5

                         Standard orientation:
 ---------------------------------------------------------------------
 Center     Atomic      Atomic             Coordinates (Angstroms)
 Number     Number       Type             X           Y           Z
 ---------------------------------------------------------------------
      1          8           0        0.000000    0.000000    0.849210
      2          8           0        0.000000    0.000000    2.201590
      3          8           0        0.000000    0.000000   -2.201590
      4          8           0        0.000000    0.000000   -0.849210
 ---------------------------------------------------------------------

 SCF Done:  E(ROHF) =  -299.121768835     A.U. after   11 cycles
 E2 =    -0.1020612203D+01 EUMP2 =    -0.30014238103791D+03
 CCSD(T)
 CCSD(T)= -0.30014511245D+03

 The electronic state is 5-SGG.
 Alpha  occ. eigenvalues --  -20.79418 -20.79418 -20.70611 -20.70610  -1.60859
 Alpha  occ. eigenvalues --   -1.58712  -1.29252  -1.17700  -0.79011  -0.78786
 Alpha  occ. eigenvalues --   -0.78786  -0.77099  -0.77099  -0.61475  -0.59011
 Alpha  occ. eigenvalues --   -0.59011  -0.52034  -0.52034
 Alpha virt. eigenvalues --    0.22818   0.39205   0.64467   0.66291   0.68318
 Alpha virt. eigenvalues --    0.68318   0.69858   0.69858   0.76459   0.76459
 Alpha virt. eigenvalues --    0.86887   0.86915   0.95649   0.95649   1.02057

 Mulliken charges and spin densities:
               1          2
     1  O   -0.080008   0.686978
     2  O    0.080008   1.313022
     3  O    0.080008   1.313022
     4  O   -0.080008   0.686978
 Sum of Mulliken charges =  -0.00000   4.00000

 Dipole moment (field-independent basis, Debye):
    X=              0.0000    Y=              0.0000    Z=              0.0000  Tot=              0.0000
 Quadrupole moment (field-independent basis, Debye-Ang):
   XX=            -20.2384   YY=            -20.2384   ZZ=            -16.8419
   XY=              0.0000   XZ=             -0.0000   YZ=              0.0000

 .1109671\CCSD=-300.0941496\CCSD(T)=-300.1451124\RMSD=4.833e-09\PG=D*H
 Normal termination of Gaussian 16 at Sat Jan 14 22:11:36 2023.
