 Gaussian 16, Revision A.03,
 Gaussian 16:  ES64L-G16RevA.03 25-Dec-2016

 ---------------------------------------------------------------
 #p ROCCSD(T)/cc-pVTZ Guess=Read SCF=(VeryTight,CDIIS,VShift=10)
 ---------------------------------------------------------------

 --------
 O2_O2_73
 --------
 Symbolic Z-matrix:
 Charge =  0 Multiplicity = 5

                         Standard orientation:
 ---------------------------------------------------------------------
 Center     Atomic      Atomic             Coordinates (Angstroms)
 Number     Number       Type             X           Y           Z
 ---------------------------------------------------------------------
      1          8           0        0.000000    0.000000    1.826152
      2          8           0        0.000000    0.000000    3.178532
      3          8           0        0.000000    0.000000   -3.178532
      4          8           0        0.000000    0.000000   -1.826152
 ---------------------------------------------------------------------

 SCF Done:  E(ROHF) =  -299.202889155     A.U. after   12 cycles
 E2 =    -0.1041993914D+01 EUMP2 =    -0.30024488306938D+03
 CCSD(T)
 CCSD(T)= -0.30021949897D+03

 The electronic state is 5-SGG.
 Alpha  occ. eigenvalues --  -20.77290 -20.77290 -20.77227 -20.77227  -1.60084
 Alpha  occ. eigenvalues --   -1.60075  -1.23548  -1.23481  -0.77593  -0.77593
 Alpha  occ. eigenvalues --   -0.77569  -0.77569  -0.72171  -0.71867  -0.57675
 Alpha  occ. eigenvalues --   -0.57675  -0.57616  -0.57616
 Alpha virt. eigenvalues --    0.22845   0.26503   0.59483   0.68591   0.68591
 Alpha virt. eigenvalues --    0.69352   0.69352   0.70510   0.72765   0.78094
 Alpha virt. eigenvalues --    0.78094   0.80262   0.80262   0.87110   0.88485

 Mulliken charges and spin densities:
               1          2
     1  O   -0.001217   0.998264
     2  O    0.001217   1.001736
     3  O    0.001217   1.001736
     4  O   -0.001217   0.998264
 Sum of Mulliken charges =  -0.00000   4.00000

 Dipole moment (field-independent basis, Debye):
    X=              0.0000    Y=              0.0000    Z=             -0.0000  Tot=              0.0000
 Quadrupole moment (field-independent basis, Debye-Ang):
   XX=            -20.3612   YY=            -20.3612   ZZ=            -20.0847
   XY=              0.0000   XZ=              0.0000   YZ=              0.0000

 -300.1883211\CCSD=-300.1694717\CCSD(T)=-300.219499\RMSD=3.641e-09\PG=D
 Normal termination of Gaussian 16 at Sat Jan 14 23:32:15 2023.
