 Gaussian 16, Revision A.03,
 Gaussian 16:  ES64L-G16RevA.03 25-Dec-2016

 ---------------------------------------------------------------
 #p ROCCSD(T)/cc-pVTZ Guess=Read SCF=(VeryTight,CDIIS,VShift=10)
 ---------------------------------------------------------------

 --------
 O2_O2_37
 --------
 Symbolic Z-matrix:
 Charge =  0 Multiplicity = 5

                         Standard orientation:
 ---------------------------------------------------------------------
 Center     Atomic      Atomic             Coordinates (Angstroms)
 Number     Number       Type             X           Y           Z
 ---------------------------------------------------------------------
      1          8           0        0.000000    0.000000    1.316443
      2          8           0        0.000000    0.000000    2.668823
      3          8           0        0.000000    0.000000   -2.668823
      4          8           0        0.000000    0.000000   -1.316443
 ---------------------------------------------------------------------

 SCF Done:  E(ROHF) =  -299.200950093     A.U. after   12 cycles
 E2 =    -0.1043710749D+01 EUMP2 =    -0.30024466084202D+03
 CCSD(T)
 CCSD(T)= -0.30021882556D+03

 The electronic state is 5-SGG.
 Alpha  occ. eigenvalues --  -20.77479 -20.77479 -20.76888 -20.76888  -1.60143
 Alpha  occ. eigenvalues --   -1.59956  -1.24042  -1.22998  -0.77699  -0.77699
 Alpha  occ. eigenvalues --   -0.77398  -0.77398  -0.73339  -0.70677  -0.57920
 Alpha  occ. eigenvalues --   -0.57920  -0.57281  -0.57281
 Alpha virt. eigenvalues --    0.22324   0.29131   0.66258   0.66258   0.67804
 Alpha virt. eigenvalues --    0.68408   0.70235   0.70235   0.71228   0.75106
 Alpha virt. eigenvalues --    0.75106   0.86367   0.86367   0.88072   0.88632

 Mulliken charges and spin densities:
               1          2
     1  O   -0.005450   0.980804
     2  O    0.005450   1.019196
     3  O    0.005450   1.019196
     4  O   -0.005450   0.980804
 Sum of Mulliken charges =  -0.00000   4.00000

 Dipole moment (field-independent basis, Debye):
    X=              0.0000    Y=              0.0000    Z=              0.0000  Tot=              0.0000
 Quadrupole moment (field-independent basis, Debye-Ang):
   XX=            -20.3593   YY=            -20.3593   ZZ=            -19.8119
   XY=              0.0000   XZ=              0.0000   YZ=              0.0000

 =-300.1879293\CCSD=-300.1686016\CCSD(T)=-300.2188256\RMSD=1.361e-09\PG
 Normal termination of Gaussian 16 at Sat Jan 14 22:49:53 2023.
