 Gaussian 16, Revision A.03,
 Gaussian 16:  ES64L-G16RevA.03 25-Dec-2016

 ---------------------------------------------------------------
 #p ROCCSD(T)/cc-pVTZ Guess=Read SCF=(VeryTight,CDIIS,VShift=10)
 ---------------------------------------------------------------

 ---------
 O2_O2_131
 ---------
 Symbolic Z-matrix:
 Charge =  0 Multiplicity = 5

                         Standard orientation:
 ---------------------------------------------------------------------
 Center     Atomic      Atomic             Coordinates (Angstroms)
 Number     Number       Type             X           Y           Z
 ---------------------------------------------------------------------
      1          8           0        0.000000    0.000000    2.647350
      2          8           0        0.000000    0.000000    3.999730
      3          8           0        0.000000    0.000000   -3.999730
      4          8           0        0.000000    0.000000   -2.647350
 ---------------------------------------------------------------------

 SCF Done:  E(ROHF) =  -299.202861432     A.U. after    3 cycles
 E2 =    -0.1041609442D+01 EUMP2 =    -0.30024447087422D+03
 CCSD(T)
 CCSD(T)= -0.30021923276D+03

 The electronic state is 5-SGG.
 Alpha  occ. eigenvalues --  -20.77262 -20.77262 -20.77224 -20.77224  -1.60066
 Alpha  occ. eigenvalues --   -1.60066  -1.23501  -1.23501  -0.77568  -0.77568
 Alpha  occ. eigenvalues --   -0.77567  -0.77567  -0.72008  -0.72004  -0.57632
 Alpha  occ. eigenvalues --   -0.57632  -0.57631  -0.57631
 Alpha virt. eigenvalues --    0.24821   0.24937   0.67394   0.67817   0.69014
 Alpha virt. eigenvalues --    0.69014   0.69020   0.69020   0.75012   0.75219
 Alpha virt. eigenvalues --    0.79127   0.79127   0.79144   0.79144   0.88524

 Mulliken charges and spin densities:
               1          2
     1  O   -0.000295   0.999469
     2  O    0.000295   1.000531
     3  O    0.000295   1.000531
     4  O   -0.000295   0.999469
 Sum of Mulliken charges =   0.00000   4.00000

 Dipole moment (field-independent basis, Debye):
    X=              0.0000    Y=             -0.0000    Z=              0.0000  Tot=              0.0000
 Quadrupole moment (field-independent basis, Debye-Ang):
   XX=            -20.3615   YY=            -20.3615   ZZ=            -20.1324
   XY=              0.0000   XZ=              0.0000   YZ=              0.0000

 Q=-300.1879707\CCSD=-300.1692398\CCSD(T)=-300.2192328\RMSD=5.164e-09\P
 Normal termination of Gaussian 16 at Sun Jan 15 00:36:12 2023.
