 Gaussian 16, Revision A.03,
 Gaussian 16:  ES64L-G16RevA.03 25-Dec-2016

 ---------------------------------------------------------------
 #p ROCCSD(T)/cc-pVTZ Guess=Read SCF=(VeryTight,CDIIS,VShift=10)
 ---------------------------------------------------------------

 --------
 O2_O2_56
 --------
 Symbolic Z-matrix:
 Charge =  0 Multiplicity = 5

                         Standard orientation:
 ---------------------------------------------------------------------
 Center     Atomic      Atomic             Coordinates (Angstroms)
 Number     Number       Type             X           Y           Z
 ---------------------------------------------------------------------
      1          8           0        0.000000    0.000000    1.585456
      2          8           0        0.000000    0.000000    2.937836
      3          8           0        0.000000    0.000000   -2.937836
      4          8           0        0.000000    0.000000   -1.585456
 ---------------------------------------------------------------------

 SCF Done:  E(ROHF) =  -299.202723186     A.U. after   14 cycles
 E2 =    -0.1042488679D+01 EUMP2 =    -0.30024521186456D+03
 CCSD(T)
 CCSD(T)= -0.30021967743D+03

 The electronic state is 5-SGG.
 Alpha  occ. eigenvalues --  -20.77323 -20.77323 -20.77190 -20.77190  -1.60100
 Alpha  occ. eigenvalues --   -1.60061  -1.23645  -1.23395  -0.77622  -0.77622
 Alpha  occ. eigenvalues --   -0.77541  -0.77541  -0.72453  -0.71596  -0.57738
 Alpha  occ. eigenvalues --   -0.57738  -0.57553  -0.57553
 Alpha virt. eigenvalues --    0.22165   0.27511   0.59102   0.67803   0.67803
 Alpha virt. eigenvalues --    0.69765   0.69765   0.69949   0.72142   0.76743
 Alpha virt. eigenvalues --    0.76743   0.82217   0.82217   0.88337   0.88590

 Mulliken charges and spin densities:
               1          2
     1  O   -0.002357   0.995814
     2  O    0.002357   1.004186
     3  O    0.002357   1.004186
     4  O   -0.002357   0.995814
 Sum of Mulliken charges =   0.00000   4.00000

 Dipole moment (field-independent basis, Debye):
    X=              0.0000    Y=              0.0000    Z=             -0.0000  Tot=              0.0000
 Quadrupole moment (field-independent basis, Debye-Ang):
   XX=            -20.3607   YY=            -20.3607   ZZ=            -20.0384
   XY=              0.0000   XZ=              0.0000   YZ=              0.0000

 =-300.1885823\CCSD=-300.1695988\CCSD(T)=-300.2196774\RMSD=2.301e-09\PG
 Normal termination of Gaussian 16 at Sat Jan 14 23:12:50 2023.
