 Gaussian 16, Revision A.03,
 Gaussian 16:  ES64L-G16RevA.03 25-Dec-2016

 ---------------------------------------------------------------
 #p ROCCSD(T)/cc-pVTZ Guess=Read SCF=(VeryTight,CDIIS,VShift=10)
 ---------------------------------------------------------------

 --------
 O2_O2_49
 --------
 Symbolic Z-matrix:
 Charge =  0 Multiplicity = 5

                         Standard orientation:
 ---------------------------------------------------------------------
 Center     Atomic      Atomic             Coordinates (Angstroms)
 Number     Number       Type             X           Y           Z
 ---------------------------------------------------------------------
      1          8           0        0.000000    0.000000    1.486346
      2          8           0        0.000000    0.000000    2.838726
      3          8           0        0.000000    0.000000   -2.838726
      4          8           0        0.000000    0.000000   -1.486346
 ---------------------------------------------------------------------

 SCF Done:  E(ROHF) =  -299.202455763     A.U. after   14 cycles
 E2 =    -0.1042829288D+01 EUMP2 =    -0.30024528505128D+03
 CCSD(T)
 CCSD(T)= -0.30021965473D+03

 The electronic state is 5-SGG.
 Alpha  occ. eigenvalues --  -20.77352 -20.77352 -20.77139 -20.77139  -1.60111
 Alpha  occ. eigenvalues --   -1.60041  -1.23734  -1.23308  -0.77642  -0.77642
 Alpha  occ. eigenvalues --   -0.77510  -0.77510  -0.72679  -0.71371  -0.57785
 Alpha  occ. eigenvalues --   -0.57785  -0.57494  -0.57494
 Alpha virt. eigenvalues --    0.22137   0.28018   0.61023   0.67274   0.67274
 Alpha virt. eigenvalues --    0.69465   0.69958   0.69958   0.71878   0.76089
 Alpha virt. eigenvalues --    0.76089   0.83508   0.83508   0.88260   0.88605

 Mulliken charges and spin densities:
               1          2
     1  O   -0.003001   0.993160
     2  O    0.003001   1.006840
     3  O    0.003001   1.006840
     4  O   -0.003001   0.993160
 Sum of Mulliken charges =  -0.00000   4.00000

 Dipole moment (field-independent basis, Debye):
    X=              0.0000    Y=             -0.0000    Z=             -0.0000  Tot=              0.0000
 Quadrupole moment (field-independent basis, Debye-Ang):
   XX=            -20.3604   YY=            -20.3604   ZZ=            -19.9959
   XY=              0.0000   XZ=              0.0000   YZ=              0.0000

 =-300.1886145\CCSD=-300.1695386\CCSD(T)=-300.2196547\RMSD=4.198e-09\PG
 Normal termination of Gaussian 16 at Sat Jan 14 23:04:47 2023.
