 Gaussian 16, Revision A.03,
 Gaussian 16:  ES64L-G16RevA.03 25-Dec-2016

 ---------------------------------------------------------------
 #p ROCCSD(T)/cc-pVTZ Guess=Read SCF=(VeryTight,CDIIS,VShift=10)
 ---------------------------------------------------------------

 -------
 O2_O2_8
 -------
 Symbolic Z-matrix:
 Charge =  0 Multiplicity = 5

                         Standard orientation:
 ---------------------------------------------------------------------
 Center     Atomic      Atomic             Coordinates (Angstroms)
 Number     Number       Type             X           Y           Z
 ---------------------------------------------------------------------
      1          8           0        0.000000    0.000000    0.905844
      2          8           0        0.000000    0.000000    2.258224
      3          8           0        0.000000    0.000000   -2.258224
      4          8           0        0.000000    0.000000   -0.905844
 ---------------------------------------------------------------------

 SCF Done:  E(ROHF) =  -299.149478879     A.U. after   15 cycles
 E2 =    -0.1030749210D+01 EUMP2 =    -0.30018022808915D+03
 CCSD(T)
 CCSD(T)= -0.30017214813D+03

 The electronic state is 5-SGG.
 Alpha  occ. eigenvalues --  -20.79217 -20.79216 -20.72055 -20.72054  -1.60593
 Alpha  occ. eigenvalues --   -1.58963  -1.27745  -1.19058  -0.78444  -0.78444
 Alpha  occ. eigenvalues --   -0.77866  -0.77012  -0.77012  -0.63835  -0.58697
 Alpha  occ. eigenvalues --   -0.58697  -0.53541  -0.53541
 Alpha virt. eigenvalues --    0.22931   0.36656   0.64855   0.67092   0.67928
 Alpha virt. eigenvalues --    0.67928   0.69977   0.69977   0.75406   0.75406
 Alpha virt. eigenvalues --    0.87129   0.87195   0.94584   0.94584   0.99033

 Mulliken charges and spin densities:
               1          2
     1  O   -0.064697   0.752472
     2  O    0.064697   1.247528
     3  O    0.064697   1.247528
     4  O   -0.064697   0.752472
 Sum of Mulliken charges =  -0.00000   4.00000

 Dipole moment (field-independent basis, Debye):
    X=              0.0000    Y=              0.0000    Z=             -0.0000  Tot=              0.0000
 Quadrupole moment (field-independent basis, Debye-Ang):
   XX=            -20.2845   YY=            -20.2845   ZZ=            -17.2711
   XY=              0.0000   XZ=             -0.0000   YZ=              0.0000

 -300.1398518\CCSD=-300.1213455\CCSD(T)=-300.1721481\RMSD=4.477e-09\PG=
 Normal termination of Gaussian 16 at Sat Jan 14 22:16:10 2023.
