 Gaussian 16, Revision A.03,
 Gaussian 16:  ES64L-G16RevA.03 25-Dec-2016

 ---------------------------------------------------------------
 #p ROCCSD(T)/cc-pVTZ Guess=Read SCF=(VeryTight,CDIIS,VShift=10)
 ---------------------------------------------------------------

 --------
 O2_O2_72
 --------
 Symbolic Z-matrix:
 Charge =  0 Multiplicity = 5

                         Standard orientation:
 ---------------------------------------------------------------------
 Center     Atomic      Atomic             Coordinates (Angstroms)
 Number     Number       Type             X           Y           Z
 ---------------------------------------------------------------------
      1          8           0        0.000000    0.000000    1.811994
      2          8           0        0.000000    0.000000    3.164374
      3          8           0        0.000000    0.000000   -3.164374
      4          8           0        0.000000    0.000000   -1.811994
 ---------------------------------------------------------------------

 SCF Done:  E(ROHF) =  -299.202887057     A.U. after   12 cycles
 E2 =    -0.1042013936D+01 EUMP2 =    -0.30024490099257D+03
 CCSD(T)
 CCSD(T)= -0.30021951030D+03

 The electronic state is 5-SGG.
 Alpha  occ. eigenvalues --  -20.77291 -20.77291 -20.77226 -20.77226  -1.60085
 Alpha  occ. eigenvalues --   -1.60074  -1.23552  -1.23478  -0.77594  -0.77594
 Alpha  occ. eigenvalues --   -0.77568  -0.77568  -0.72181  -0.71857  -0.57677
 Alpha  occ. eigenvalues --   -0.57677  -0.57614  -0.57614
 Alpha virt. eigenvalues --    0.22785   0.26556   0.59310   0.68561   0.68561
 Alpha virt. eigenvalues --    0.69372   0.69372   0.70503   0.72724   0.78032
 Alpha virt. eigenvalues --    0.78032   0.80337   0.80337   0.87760   0.88509

 Mulliken charges and spin densities:
               1          2
     1  O   -0.001267   0.998190
     2  O    0.001267   1.001810
     3  O    0.001267   1.001810
     4  O   -0.001267   0.998190
 Sum of Mulliken charges =  -0.00000   4.00000

 Dipole moment (field-independent basis, Debye):
    X=              0.0000    Y=              0.0000    Z=              0.0000  Tot=              0.0000
 Quadrupole moment (field-independent basis, Debye-Ang):
   XX=            -20.3612   YY=            -20.3612   ZZ=            -20.0829
   XY=              0.0000   XZ=              0.0000   YZ=              0.0000

 300.188336\CCSD=-300.169481\CCSD(T)=-300.2195103\RMSD=3.790e-09\PG=D*H
 Normal termination of Gaussian 16 at Sat Jan 14 23:31:10 2023.
