 Gaussian 16, Revision A.03,
 Gaussian 16:  ES64L-G16RevA.03 25-Dec-2016

 ---------------------------------------------------------------
 #p ROCCSD(T)/cc-pVTZ Guess=Read SCF=(VeryTight,CDIIS,VShift=10)
 ---------------------------------------------------------------

 --------
 O2_O2_23
 --------
 Symbolic Z-matrix:
 Charge =  0 Multiplicity = 5

                         Standard orientation:
 ---------------------------------------------------------------------
 Center     Atomic      Atomic             Coordinates (Angstroms)
 Number     Number       Type             X           Y           Z
 ---------------------------------------------------------------------
      1          8           0        0.000000    0.000000    1.118223
      2          8           0        0.000000    0.000000    2.470603
      3          8           0        0.000000    0.000000   -2.470603
      4          8           0        0.000000    0.000000   -1.118223
 ---------------------------------------------------------------------

 SCF Done:  E(ROHF) =  -299.192699143     A.U. after   12 cycles
 E2 =    -0.1044437107D+01 EUMP2 =    -0.30023713624957D+03
 CCSD(T)
 CCSD(T)= -0.30021220413D+03

 The electronic state is 5-SGG.
 Alpha  occ. eigenvalues --  -20.78001 -20.78001 -20.75766 -20.75766  -1.60228
 Alpha  occ. eigenvalues --   -1.59659  -1.24955  -1.22028  -0.77836  -0.77836
 Alpha  occ. eigenvalues --   -0.77119  -0.77119  -0.74834  -0.68844  -0.58202
 Alpha  occ. eigenvalues --   -0.58202  -0.56533  -0.56533
 Alpha virt. eigenvalues --    0.22667   0.31284   0.65997   0.65997   0.66929
 Alpha virt. eigenvalues --    0.69716   0.70323   0.70323   0.74447   0.74447
 Alpha virt. eigenvalues --    0.81255   0.87752   0.88914   0.90283   0.90283

 Mulliken charges and spin densities:
               1          2
     1  O   -0.018227   0.926326
     2  O    0.018227   1.073674
     3  O    0.018227   1.073674
     4  O   -0.018227   0.926326
 Sum of Mulliken charges =  -0.00000   4.00000

 Dipole moment (field-independent basis, Debye):
    X=              0.0000    Y=             -0.0000    Z=              0.0000  Tot=              0.0000
 Quadrupole moment (field-independent basis, Debye-Ang):
   XX=            -20.3508   YY=            -20.3508   ZZ=            -19.0802
   XY=              0.0000   XZ=              0.0000   YZ=              0.0000

 =-300.1815152\CCSD=-300.1617329\CCSD(T)=-300.2122041\RMSD=7.657e-09\PG
 Normal termination of Gaussian 16 at Sat Jan 14 22:33:32 2023.
