 Gaussian 16, Revision A.03,
 Gaussian 16:  ES64L-G16RevA.03 25-Dec-2016

 ---------------------------------------------------------------
 #p ROCCSD(T)/cc-pVTZ Guess=Read SCF=(VeryTight,CDIIS,VShift=10)
 ---------------------------------------------------------------

 --------
 O2_O2_22
 --------
 Symbolic Z-matrix:
 Charge =  0 Multiplicity = 5

                         Standard orientation:
 ---------------------------------------------------------------------
 Center     Atomic      Atomic             Coordinates (Angstroms)
 Number     Number       Type             X           Y           Z
 ---------------------------------------------------------------------
      1          8           0        0.000000    0.000000    1.104065
      2          8           0        0.000000    0.000000    2.456445
      3          8           0        0.000000    0.000000   -2.456445
      4          8           0        0.000000    0.000000   -1.104065
 ---------------------------------------------------------------------

 SCF Done:  E(ROHF) =  -299.191461887     A.U. after   15 cycles
 E2 =    -0.1044318209D+01 EUMP2 =    -0.30023578009629D+03
 CCSD(T)
 CCSD(T)= -0.30021113962D+03

 The electronic state is 5-SGG.
 Alpha  occ. eigenvalues --  -20.78066 -20.78066 -20.75617 -20.75617  -1.60238
 Alpha  occ. eigenvalues --   -1.59625  -1.25061  -1.21912  -0.77853  -0.77853
 Alpha  occ. eigenvalues --   -0.77096  -0.77096  -0.74982  -0.68639  -0.58227
 Alpha  occ. eigenvalues --   -0.58227  -0.56434  -0.56434
 Alpha virt. eigenvalues --    0.22692   0.31505   0.66064   0.66064   0.66805
 Alpha virt. eigenvalues --    0.69566   0.70314   0.70314   0.74429   0.74429
 Alpha virt. eigenvalues --    0.82312   0.87725   0.89019   0.90571   0.90571

 Mulliken charges and spin densities:
               1          2
     1  O   -0.020056   0.919145
     2  O    0.020056   1.080855
     3  O    0.020056   1.080855
     4  O   -0.020056   0.919145
 Sum of Mulliken charges =  -0.00000   4.00000

 Dipole moment (field-independent basis, Debye):
    X=              0.0000    Y=              0.0000    Z=             -0.0000  Tot=              0.0000
 Quadrupole moment (field-independent basis, Debye-Ang):
   XX=            -20.3492   YY=            -20.3492   ZZ=            -18.9902
   XY=              0.0000   XZ=              0.0000   YZ=              0.0000

 =-300.1804527\CCSD=-300.1606454\CCSD(T)=-300.2111396\RMSD=5.482e-09\PG
 Normal termination of Gaussian 16 at Sat Jan 14 22:32:26 2023.
