 Gaussian 16, Revision A.03,
 Gaussian 16:  ES64L-G16RevA.03 25-Dec-2016

 ---------------------------------------------------------------
 #p ROCCSD(T)/cc-pVTZ Guess=Read SCF=(VeryTight,CDIIS,VShift=10)
 ---------------------------------------------------------------

 --------
 O2_O2_71
 --------
 Symbolic Z-matrix:
 Charge =  0 Multiplicity = 5

                         Standard orientation:
 ---------------------------------------------------------------------
 Center     Atomic      Atomic             Coordinates (Angstroms)
 Number     Number       Type             X           Y           Z
 ---------------------------------------------------------------------
      1          8           0        0.000000    0.000000    1.797835
      2          8           0        0.000000    0.000000    3.150215
      3          8           0        0.000000    0.000000   -3.150215
      4          8           0        0.000000    0.000000   -1.797835
 ---------------------------------------------------------------------

 SCF Done:  E(ROHF) =  -299.202884443     A.U. after   12 cycles
 E2 =    -0.1042034872D+01 EUMP2 =    -0.30024491931502D+03
 CCSD(T)
 CCSD(T)= -0.30021952180D+03

 The electronic state is 5-SGG.
 Alpha  occ. eigenvalues --  -20.77292 -20.77292 -20.77226 -20.77226  -1.60085
 Alpha  occ. eigenvalues --   -1.60074  -1.23555  -1.23476  -0.77595  -0.77595
 Alpha  occ. eigenvalues --   -0.77567  -0.77567  -0.72191  -0.71848  -0.57680
 Alpha  occ. eigenvalues --   -0.57680  -0.57612  -0.57612
 Alpha virt. eigenvalues --    0.22728   0.26610   0.59151   0.68530   0.68530
 Alpha virt. eigenvalues --    0.69392   0.69392   0.70493   0.72684   0.77967
 Alpha virt. eigenvalues --    0.77967   0.80417   0.80417   0.88278   0.88560

 Mulliken charges and spin densities:
               1          2
     1  O   -0.001319   0.998110
     2  O    0.001319   1.001890
     3  O    0.001319   1.001890
     4  O   -0.001319   0.998110
 Sum of Mulliken charges =   0.00000   4.00000

 Dipole moment (field-independent basis, Debye):
    X=              0.0000    Y=             -0.0000    Z=             -0.0000  Tot=              0.0000
 Quadrupole moment (field-independent basis, Debye-Ang):
   XX=            -20.3612   YY=            -20.3612   ZZ=            -20.0810
   XY=              0.0000   XZ=              0.0000   YZ=              0.0000

 300.1883511\CCSD=-300.1694904\CCSD(T)=-300.2195218\RMSD=3.972e-09\PG=D
 Normal termination of Gaussian 16 at Sat Jan 14 23:30:05 2023.
