 Gaussian 16, Revision A.03,
 Gaussian 16:  ES64L-G16RevA.03 25-Dec-2016

 ---------------------------------------------------------------
 #p ROCCSD(T)/cc-pVTZ Guess=Read SCF=(VeryTight,CDIIS,VShift=10)
 ---------------------------------------------------------------

 ---------
 O2_O2_139
 ---------
 Symbolic Z-matrix:
 Charge =  0 Multiplicity = 5

                         Standard orientation:
 ---------------------------------------------------------------------
 Center     Atomic      Atomic             Coordinates (Angstroms)
 Number     Number       Type             X           Y           Z
 ---------------------------------------------------------------------
      1          8           0        0.000000    0.000000    2.760619
      2          8           0        0.000000    0.000000    4.112999
      3          8           0        0.000000    0.000000   -4.112999
      4          8           0        0.000000    0.000000   -2.760619
 ---------------------------------------------------------------------

 SCF Done:  E(ROHF) =  -299.202861411     A.U. after    3 cycles
 E2 =    -0.1041598828D+01 EUMP2 =    -0.30024446023903D+03
 CCSD(T)
 CCSD(T)= -0.30021922688D+03

 The electronic state is 5-SGG.
 Alpha  occ. eigenvalues --  -20.77261 -20.77261 -20.77224 -20.77224  -1.60066
 Alpha  occ. eigenvalues --   -1.60066  -1.23501  -1.23500  -0.77567  -0.77567
 Alpha  occ. eigenvalues --   -0.77567  -0.77567  -0.72006  -0.72004  -0.57631
 Alpha  occ. eigenvalues --   -0.57631  -0.57631  -0.57631
 Alpha virt. eigenvalues --    0.24852   0.24909   0.67507   0.67711   0.69016
 Alpha virt. eigenvalues --    0.69016   0.69019   0.69019   0.75067   0.75162
 Alpha virt. eigenvalues --    0.79133   0.79133   0.79140   0.79140   0.88525

 Mulliken charges and spin densities:
               1          2
     1  O   -0.000266   0.999511
     2  O    0.000266   1.000489
     3  O    0.000266   1.000489
     4  O   -0.000266   0.999511
 Sum of Mulliken charges =   0.00000   4.00000

 Dipole moment (field-independent basis, Debye):
    X=              0.0000    Y=              0.0000    Z=              0.0000  Tot=              0.0000
 Quadrupole moment (field-independent basis, Debye-Ang):
   XX=            -20.3615   YY=            -20.3615   ZZ=            -20.1343
   XY=              0.0000   XZ=              0.0000   YZ=              0.0000

 =-300.1879615\CCSD=-300.1692347\CCSD(T)=-300.2192269\RMSD=7.908e-09\PG
 Normal termination of Gaussian 16 at Sun Jan 15 00:45:19 2023.
