 Gaussian 16, Revision A.03,
 Gaussian 16:  ES64L-G16RevA.03 25-Dec-2016

 ---------------------------------------------------------------
 #p ROCCSD(T)/cc-pVTZ Guess=Read SCF=(VeryTight,CDIIS,VShift=10)
 ---------------------------------------------------------------

 ---------
 O2_O2_124
 ---------
 Symbolic Z-matrix:
 Charge =  0 Multiplicity = 5

                         Standard orientation:
 ---------------------------------------------------------------------
 Center     Atomic      Atomic             Coordinates (Angstroms)
 Number     Number       Type             X           Y           Z
 ---------------------------------------------------------------------
      1          8           0        0.000000    0.000000    2.548240
      2          8           0        0.000000    0.000000    3.900620
      3          8           0        0.000000    0.000000   -3.900620
      4          8           0        0.000000    0.000000   -2.548240
 ---------------------------------------------------------------------

 SCF Done:  E(ROHF) =  -299.202861682     A.U. after    7 cycles
 E2 =    -0.1041621349D+01 EUMP2 =    -0.30024448303093D+03
 CCSD(T)
 CCSD(T)= -0.30021923965D+03

 The electronic state is 5-SGG.
 Alpha  occ. eigenvalues --  -20.77263 -20.77263 -20.77224 -20.77224  -1.60067
 Alpha  occ. eigenvalues --   -1.60067  -1.23502  -1.23501  -0.77568  -0.77568
 Alpha  occ. eigenvalues --   -0.77568  -0.77568  -0.72011  -0.72002  -0.57633
 Alpha  occ. eigenvalues --   -0.57633  -0.57632  -0.57632
 Alpha virt. eigenvalues --    0.24774   0.24981   0.67215   0.67980   0.69011
 Alpha virt. eigenvalues --    0.69011   0.69023   0.69023   0.74926   0.75317
 Alpha virt. eigenvalues --    0.79118   0.79118   0.79152   0.79152   0.88523

 Mulliken charges and spin densities:
               1          2
     1  O   -0.000349   0.999368
     2  O    0.000349   1.000632
     3  O    0.000349   1.000632
     4  O   -0.000349   0.999368
 Sum of Mulliken charges =   0.00000   4.00000

 Dipole moment (field-independent basis, Debye):
    X=              0.0000    Y=             -0.0000    Z=              0.0000  Tot=              0.0000
 Quadrupole moment (field-independent basis, Debye-Ang):
   XX=            -20.3615   YY=            -20.3615   ZZ=            -20.1285
   XY=              0.0000   XZ=              0.0000   YZ=              0.0000

 -300.1879813\CCSD=-300.1692458\CCSD(T)=-300.2192397\RMSD=4.447e-09\PG=
 Normal termination of Gaussian 16 at Sun Jan 15 00:28:38 2023.
