 Gaussian 16, Revision A.03,
 Gaussian 16:  ES64L-G16RevA.03 25-Dec-2016

 ---------------------------------------------------------------
 #p ROCCSD(T)/cc-pVTZ Guess=Read SCF=(VeryTight,CDIIS,VShift=10)
 ---------------------------------------------------------------

 --------
 O2_O2_90
 --------
 Symbolic Z-matrix:
 Charge =  0 Multiplicity = 5

                         Standard orientation:
 ---------------------------------------------------------------------
 Center     Atomic      Atomic             Coordinates (Angstroms)
 Number     Number       Type             X           Y           Z
 ---------------------------------------------------------------------
      1          8           0        0.000000    0.000000    2.066848
      2          8           0        0.000000    0.000000    3.419228
      3          8           0        0.000000    0.000000   -3.419228
      4          8           0        0.000000    0.000000   -2.066848
 ---------------------------------------------------------------------

 SCF Done:  E(ROHF) =  -299.202882888     A.U. after    6 cycles
 E2 =    -0.1041765387D+01 EUMP2 =    -0.30024464827523D+03
 CCSD(T)
 CCSD(T)= -0.30021934523D+03

 The electronic state is 5-SGG.
 Alpha  occ. eigenvalues --  -20.77275 -20.77275 -20.77228 -20.77228  -1.60074
 Alpha  occ. eigenvalues --   -1.60072  -1.23517  -1.23499  -0.77578  -0.77578
 Alpha  occ. eigenvalues --   -0.77571  -0.77571  -0.72066  -0.71960  -0.57648
 Alpha  occ. eigenvalues --   -0.57648  -0.57630  -0.57630
 Alpha virt. eigenvalues --    0.23863   0.25722   0.63345   0.68891   0.68891
 Alpha virt. eigenvalues --    0.69126   0.69126   0.70037   0.73593   0.78798
 Alpha virt. eigenvalues --    0.78798   0.79010   0.79471   0.79471   0.88508

 Mulliken charges and spin densities:
               1          2
     1  O   -0.000694   0.998944
     2  O    0.000694   1.001056
     3  O    0.000694   1.001056
     4  O   -0.000694   0.998944
 Sum of Mulliken charges =  -0.00000   4.00000

 Dipole moment (field-independent basis, Debye):
    X=              0.0000    Y=              0.0000    Z=              0.0000  Tot=              0.0000
 Quadrupole moment (field-independent basis, Debye-Ang):
   XX=            -20.3614   YY=            -20.3614   ZZ=            -20.1074
   XY=              0.0000   XZ=              0.0000   YZ=              0.0000

 =-300.1881241\CCSD=-300.1693396\CCSD(T)=-300.2193452\RMSD=6.932e-09\PG
 Normal termination of Gaussian 16 at Sat Jan 14 23:50:59 2023.
