 Gaussian 16, Revision A.03,
 Gaussian 16:  ES64L-G16RevA.03 25-Dec-2016

 ---------------------------------------------------------------
 #p ROCCSD(T)/cc-pVTZ Guess=Read SCF=(VeryTight,CDIIS,VShift=10)
 ---------------------------------------------------------------

 -------
 O2_O2_9
 -------
 Symbolic Z-matrix:
 Charge =  0 Multiplicity = 5

                         Standard orientation:
 ---------------------------------------------------------------------
 Center     Atomic      Atomic             Coordinates (Angstroms)
 Number     Number       Type             X           Y           Z
 ---------------------------------------------------------------------
      1          8           0        0.000000    0.000000    0.920002
      2          8           0        0.000000    0.000000    2.272383
      3          8           0        0.000000    0.000000   -2.272383
      4          8           0        0.000000    0.000000   -0.920002
 ---------------------------------------------------------------------

 SCF Done:  E(ROHF) =  -299.154860651     A.U. after   12 cycles
 E2 =    -0.1032815437D+01 EUMP2 =    -0.30018767608831D+03
 CCSD(T)
 CCSD(T)= -0.30017732332D+03

 The electronic state is 5-SGG.
 Alpha  occ. eigenvalues --  -20.79143 -20.79143 -20.72397 -20.72396  -1.60544
 Alpha  occ. eigenvalues --   -1.59020  -1.27441  -1.19355  -0.78371  -0.78371
 Alpha  occ. eigenvalues --   -0.77604  -0.76996  -0.76996  -0.64338  -0.58643
 Alpha  occ. eigenvalues --   -0.58643  -0.53867  -0.53867
 Alpha virt. eigenvalues --    0.22936   0.36113   0.64983   0.67284   0.67797
 Alpha virt. eigenvalues --    0.67797   0.70009   0.70009   0.75208   0.75208
 Alpha virt. eigenvalues --    0.87163   0.87251   0.94307   0.94307   0.98175

 Mulliken charges and spin densities:
               1          2
     1  O   -0.060703   0.768087
     2  O    0.060703   1.231913
     3  O    0.060703   1.231913
     4  O   -0.060703   0.768087
 Sum of Mulliken charges =  -0.00000   4.00000

 Dipole moment (field-independent basis, Debye):
    X=              0.0000    Y=              0.0000    Z=             -0.0000  Tot=              0.0000
 Quadrupole moment (field-independent basis, Debye-Ang):
   XX=            -20.2932   YY=            -20.2932   ZZ=            -17.3980
   XY=              0.0000   XZ=             -0.0000   YZ=              0.0000

 -300.1453439\CCSD=-300.1265454\CCSD(T)=-300.1773233\RMSD=8.489e-09\PG=
 Normal termination of Gaussian 16 at Sat Jan 14 22:17:22 2023.
