 Gaussian 16, Revision A.03,
 Gaussian 16:  ES64L-G16RevA.03 25-Dec-2016

 ---------------------------------------------------------------
 #p ROCCSD(T)/cc-pVTZ Guess=Read SCF=(VeryTight,CDIIS,VShift=10)
 ---------------------------------------------------------------

 --------
 O2_O2_39
 --------
 Symbolic Z-matrix:
 Charge =  0 Multiplicity = 5

                         Standard orientation:
 ---------------------------------------------------------------------
 Center     Atomic      Atomic             Coordinates (Angstroms)
 Number     Number       Type             X           Y           Z
 ---------------------------------------------------------------------
      1          8           0        0.000000    0.000000    1.344760
      2          8           0        0.000000    0.000000    2.697140
      3          8           0        0.000000    0.000000   -2.697140
      4          8           0        0.000000    0.000000   -1.344760
 ---------------------------------------------------------------------

 SCF Done:  E(ROHF) =  -299.201369533     A.U. after   12 cycles
 E2 =    -0.1043536324D+01 EUMP2 =    -0.30024490585713D+03
 CCSD(T)
 CCSD(T)= -0.30021910122D+03

 The electronic state is 5-SGG.
 Alpha  occ. eigenvalues --  -20.77446 -20.77446 -20.76955 -20.76954  -1.60136
 Alpha  occ. eigenvalues --   -1.59977  -1.23971  -1.23071  -0.77687  -0.77687
 Alpha  occ. eigenvalues --   -0.77424  -0.77424  -0.73197  -0.70831  -0.57891
 Alpha  occ. eigenvalues --   -0.57891  -0.57331  -0.57331
 Alpha virt. eigenvalues --    0.22281   0.28916   0.66350   0.66414   0.66414
 Alpha virt. eigenvalues --    0.68597   0.70198   0.70198   0.71366   0.75248
 Alpha virt. eigenvalues --    0.75248   0.85844   0.85844   0.88109   0.88627

 Mulliken charges and spin densities:
               1          2
     1  O   -0.004782   0.984059
     2  O    0.004782   1.015941
     3  O    0.004782   1.015941
     4  O   -0.004782   0.984059
 Sum of Mulliken charges =  -0.00000   4.00000

 Dipole moment (field-independent basis, Debye):
    X=              0.0000    Y=             -0.0000    Z=              0.0000  Tot=              0.0000
 Quadrupole moment (field-independent basis, Debye-Ang):
   XX=            -20.3596   YY=            -20.3596   ZZ=            -19.8593
   XY=              0.0000   XZ=              0.0000   YZ=              0.0000

 00.1881757\CCSD=-300.1689004\CCSD(T)=-300.2191012\RMSD=1.041e-09\PG=D*
 Normal termination of Gaussian 16 at Sat Jan 14 22:52:03 2023.
