 Gaussian 16, Revision A.03,
 Gaussian 16:  ES64L-G16RevA.03 25-Dec-2016

 ---------------------------------------------------------------
 #p ROCCSD(T)/cc-pVTZ Guess=Read SCF=(VeryTight,CDIIS,VShift=10)
 ---------------------------------------------------------------

 ---------
 O2_O2_212
 ---------
 Symbolic Z-matrix:
 Charge =  0 Multiplicity = 5

                         Standard orientation:
 ---------------------------------------------------------------------
 Center     Atomic      Atomic             Coordinates (Angstroms)
 Number     Number       Type             X           Y           Z
 ---------------------------------------------------------------------
      1          8           0        0.000000    0.000000    3.794195
      2          8           0        0.000000    0.000000    5.146575
      3          8           0        0.000000    0.000000   -5.146575
      4          8           0        0.000000    0.000000   -3.794195
 ---------------------------------------------------------------------

 SCF Done:  E(ROHF) =  -299.202861742     A.U. after    4 cycles
 E2 =    -0.1041563580D+01 EUMP2 =    -0.30024442532166D+03
 CCSD(T)
 CCSD(T)= -0.30021920811D+03

 The electronic state is 5-SGG.
 Alpha  occ. eigenvalues --  -20.77257 -20.77257 -20.77223 -20.77223  -1.60063
 Alpha  occ. eigenvalues --   -1.60063  -1.23497  -1.23497  -0.77564  -0.77564
 Alpha  occ. eigenvalues --   -0.77564  -0.77564  -0.72002  -0.72002  -0.57628
 Alpha  occ. eigenvalues --   -0.57628  -0.57628  -0.57628
 Alpha virt. eigenvalues --    0.24884   0.24884   0.67614   0.67614   0.69020
 Alpha virt. eigenvalues --    0.69020   0.69020   0.69020   0.75118   0.75118
 Alpha virt. eigenvalues --    0.79139   0.79139   0.79139   0.79139   0.88528

 Mulliken charges and spin densities:
               1          2
     1  O   -0.000101   0.999801
     2  O    0.000101   1.000199
     3  O    0.000101   1.000199
     4  O   -0.000101   0.999801
 Sum of Mulliken charges =  -0.00000   4.00000

 Dipole moment (field-independent basis, Debye):
    X=              0.0000    Y=              0.0000    Z=             -0.0000  Tot=              0.0000
 Quadrupole moment (field-independent basis, Debye-Ang):
   XX=            -20.3615   YY=            -20.3615   ZZ=            -20.1468
   XY=              0.0000   XZ=              0.0000   YZ=              0.0000

 300.187931\CCSD=-300.1692184\CCSD(T)=-300.2192081\RMSD=4.656e-09\PG=D*
 Normal termination of Gaussian 16 at Sun Jan 15 02:06:50 2023.
