 Gaussian 16, Revision A.03,
 Gaussian 16:  ES64L-G16RevA.03 25-Dec-2016

 ---------------------------------------------------------------
 #p ROCCSD(T)/cc-pVTZ Guess=Read SCF=(VeryTight,CDIIS,VShift=10)
 ---------------------------------------------------------------

 ---------
 O2_O2_166
 ---------
 Symbolic Z-matrix:
 Charge =  0 Multiplicity = 5

                         Standard orientation:
 ---------------------------------------------------------------------
 Center     Atomic      Atomic             Coordinates (Angstroms)
 Number     Number       Type             X           Y           Z
 ---------------------------------------------------------------------
      1          8           0        0.000000    0.000000    3.142900
      2          8           0        0.000000    0.000000    4.495280
      3          8           0        0.000000    0.000000   -4.495280
      4          8           0        0.000000    0.000000   -3.142900
 ---------------------------------------------------------------------

 SCF Done:  E(ROHF) =  -299.202861604     A.U. after    3 cycles
 E2 =    -0.1041577447D+01 EUMP2 =    -0.30024443905024D+03
 CCSD(T)
 CCSD(T)= -0.30021921540D+03

 The electronic state is 5-SGG.
 Alpha  occ. eigenvalues --  -20.77259 -20.77259 -20.77223 -20.77223  -1.60064
 Alpha  occ. eigenvalues --   -1.60064  -1.23499  -1.23499  -0.77565  -0.77565
 Alpha  occ. eigenvalues --   -0.77565  -0.77565  -0.72004  -0.72003  -0.57630
 Alpha  occ. eigenvalues --   -0.57630  -0.57630  -0.57630
 Alpha virt. eigenvalues --    0.24881   0.24884   0.67606   0.67618   0.69019
 Alpha virt. eigenvalues --    0.69019   0.69019   0.69019   0.75113   0.75118
 Alpha virt. eigenvalues --    0.79137   0.79137   0.79138   0.79138   0.88527

 Mulliken charges and spin densities:
               1          2
     1  O   -0.000180   0.999659
     2  O    0.000180   1.000341
     3  O    0.000180   1.000341
     4  O   -0.000180   0.999659
 Sum of Mulliken charges =   0.00000   4.00000

 Dipole moment (field-independent basis, Debye):
    X=              0.0000    Y=              0.0000    Z=              0.0000  Tot=              0.0000
 Quadrupole moment (field-independent basis, Debye-Ang):
   XX=            -20.3615   YY=            -20.3615   ZZ=            -20.1405
   XY=              0.0000   XZ=              0.0000   YZ=              0.0000

 -300.187943\CCSD=-300.1692247\CCSD(T)=-300.2192154\RMSD=9.245e-09\PG=D
 Normal termination of Gaussian 16 at Sun Jan 15 01:15:29 2023.
