 Gaussian 16, Revision A.03,
 Gaussian 16:  ES64L-G16RevA.03 25-Dec-2016

 ---------------------------------------------------------------
 #p ROCCSD(T)/cc-pVTZ Guess=Read SCF=(VeryTight,CDIIS,VShift=10)
 ---------------------------------------------------------------

 --------
 O2_O2_78
 --------
 Symbolic Z-matrix:
 Charge =  0 Multiplicity = 5

                         Standard orientation:
 ---------------------------------------------------------------------
 Center     Atomic      Atomic             Coordinates (Angstroms)
 Number     Number       Type             X           Y           Z
 ---------------------------------------------------------------------
      1          8           0        0.000000    0.000000    1.896945
      2          8           0        0.000000    0.000000    3.249325
      3          8           0        0.000000    0.000000   -3.249325
      4          8           0        0.000000    0.000000   -1.896945
 ---------------------------------------------------------------------

 SCF Done:  E(ROHF) =  -299.202893546     A.U. after    9 cycles
 E2 =    -0.1041906392D+01 EUMP2 =    -0.30024479993778D+03
 CCSD(T)
 CCSD(T)= -0.30021944553D+03

 The electronic state is 5-SGG.
 Alpha  occ. eigenvalues --  -20.77284 -20.77284 -20.77228 -20.77228  -1.60080
 Alpha  occ. eigenvalues --   -1.60074  -1.23536  -1.23490  -0.77587  -0.77587
 Alpha  occ. eigenvalues --   -0.77570  -0.77570  -0.72129  -0.71905  -0.57664
 Alpha  occ. eigenvalues --   -0.57664  -0.57623  -0.57623
 Alpha virt. eigenvalues --    0.23154   0.26250   0.60510   0.68714   0.68714
 Alpha virt. eigenvalues --    0.69265   0.69265   0.70487   0.72983   0.78367
 Alpha virt. eigenvalues --    0.78367   0.79941   0.79941   0.84079   0.88484

 Mulliken charges and spin densities:
               1          2
     1  O   -0.001016   0.998536
     2  O    0.001016   1.001464
     3  O    0.001016   1.001464
     4  O   -0.001016   0.998536
 Sum of Mulliken charges =  -0.00000   4.00000

 Dipole moment (field-independent basis, Debye):
    X=              0.0000    Y=             -0.0000    Z=             -0.0000  Tot=              0.0000
 Quadrupole moment (field-independent basis, Debye-Ang):
   XX=            -20.3613   YY=            -20.3613   ZZ=            -20.0921
   XY=              0.0000   XZ=              0.0000   YZ=              0.0000

 300.188252\CCSD=-300.1694267\CCSD(T)=-300.2194455\RMSD=3.373e-09\PG=D*
 Normal termination of Gaussian 16 at Sat Jan 14 23:37:47 2023.
