 Gaussian 16, Revision A.03,
 Gaussian 16:  ES64L-G16RevA.03 25-Dec-2016

 ---------------------------------------------------------------
 #p ROCCSD(T)/cc-pVTZ Guess=Read SCF=(VeryTight,CDIIS,VShift=10)
 ---------------------------------------------------------------

 --------
 O2_O2_89
 --------
 Symbolic Z-matrix:
 Charge =  0 Multiplicity = 5

                         Standard orientation:
 ---------------------------------------------------------------------
 Center     Atomic      Atomic             Coordinates (Angstroms)
 Number     Number       Type             X           Y           Z
 ---------------------------------------------------------------------
      1          8           0        0.000000    0.000000    2.052690
      2          8           0        0.000000    0.000000    3.405070
      3          8           0        0.000000    0.000000   -3.405070
      4          8           0        0.000000    0.000000   -2.052690
 ---------------------------------------------------------------------

 SCF Done:  E(ROHF) =  -299.202884198     A.U. after    5 cycles
 E2 =    -0.1041774178D+01 EUMP2 =    -0.30024465837534D+03
 CCSD(T)
 CCSD(T)= -0.30021935196D+03

 The electronic state is 5-SGG.
 Alpha  occ. eigenvalues --  -20.77275 -20.77275 -20.77228 -20.77228  -1.60075
 Alpha  occ. eigenvalues --   -1.60072  -1.23518  -1.23499  -0.77579  -0.77579
 Alpha  occ. eigenvalues --   -0.77571  -0.77571  -0.72070  -0.71957  -0.57649
 Alpha  occ. eigenvalues --   -0.57649  -0.57630  -0.57630
 Alpha virt. eigenvalues --    0.23811   0.25761   0.63119   0.68881   0.68881
 Alpha virt. eigenvalues --    0.69134   0.69134   0.70096   0.73538   0.78773
 Alpha virt. eigenvalues --    0.78773   0.79319   0.79498   0.79498   0.88507

 Mulliken charges and spin densities:
               1          2
     1  O   -0.000709   0.998931
     2  O    0.000709   1.001069
     3  O    0.000709   1.001069
     4  O   -0.000709   0.998931
 Sum of Mulliken charges =  -0.00000   4.00000

 Dipole moment (field-independent basis, Debye):
    X=              0.0000    Y=              0.0000    Z=              0.0000  Tot=              0.0000
 Quadrupole moment (field-independent basis, Debye-Ang):
   XX=            -20.3614   YY=            -20.3614   ZZ=            -20.1066
   XY=              0.0000   XZ=              0.0000   YZ=              0.0000

 =-300.1881327\CCSD=-300.1693455\CCSD(T)=-300.219352\RMSD=8.381e-09\PG=
 Normal termination of Gaussian 16 at Sat Jan 14 23:49:56 2023.
