 Gaussian 16, Revision A.03,
 Gaussian 16:  ES64L-G16RevA.03 25-Dec-2016

 ---------------------------------------------------------------
 #p ROCCSD(T)/cc-pVTZ Guess=Read SCF=(VeryTight,CDIIS,VShift=10)
 ---------------------------------------------------------------

 --------
 O2_O2_64
 --------
 Symbolic Z-matrix:
 Charge =  0 Multiplicity = 5

                         Standard orientation:
 ---------------------------------------------------------------------
 Center     Atomic      Atomic             Coordinates (Angstroms)
 Number     Number       Type             X           Y           Z
 ---------------------------------------------------------------------
      1          8           0        0.000000    0.000000    1.698725
      2          8           0        0.000000    0.000000    3.051105
      3          8           0        0.000000    0.000000   -3.051105
      4          8           0        0.000000    0.000000   -1.698725
 ---------------------------------------------------------------------

 SCF Done:  E(ROHF) =  -299.202846139     A.U. after   12 cycles
 E2 =    -0.1042210214D+01 EUMP2 =    -0.30024505635305D+03
 CCSD(T)
 CCSD(T)= -0.30021960394D+03

 The electronic state is 5-SGG.
 Alpha  occ. eigenvalues --  -20.77304 -20.77304 -20.77216 -20.77216  -1.60091
 Alpha  occ. eigenvalues --   -1.60071  -1.23586  -1.23450  -0.77605  -0.77605
 Alpha  occ. eigenvalues --   -0.77560  -0.77560  -0.72285  -0.71758  -0.57702
 Alpha  occ. eigenvalues --   -0.57702  -0.57593  -0.57593
 Alpha virt. eigenvalues --    0.22383   0.27006   0.58514   0.68257   0.68257
 Alpha virt. eigenvalues --    0.69552   0.69552   0.70329   0.72422   0.77450
 Alpha virt. eigenvalues --    0.77450   0.81106   0.81106   0.88398   0.88574

 Mulliken charges and spin densities:
               1          2
     1  O   -0.001750   0.997361
     2  O    0.001750   1.002639
     3  O    0.001750   1.002639
     4  O   -0.001750   0.997361
 Sum of Mulliken charges =  -0.00000   4.00000

 Dipole moment (field-independent basis, Debye):
    X=              0.0000    Y=             -0.0000    Z=             -0.0000  Tot=              0.0000
 Quadrupole moment (field-independent basis, Debye-Ang):
   XX=            -20.3610   YY=            -20.3610   ZZ=            -20.0656
   XY=              0.0000   XZ=              0.0000   YZ=              0.0000

 =-300.188463\CCSD=-300.1695547\CCSD(T)=-300.2196039\RMSD=7.278e-09\PG=
 Normal termination of Gaussian 16 at Sat Jan 14 23:22:08 2023.
