 Gaussian 16, Revision A.03,
 Gaussian 16:  ES64L-G16RevA.03 25-Dec-2016

 ---------------------------------------------------------------
 #p ROCCSD(T)/cc-pVTZ Guess=Read SCF=(VeryTight,CDIIS,VShift=10)
 ---------------------------------------------------------------

 --------
 O2_O2_13
 --------
 Symbolic Z-matrix:
 Charge =  0 Multiplicity = 5

                         Standard orientation:
 ---------------------------------------------------------------------
 Center     Atomic      Atomic             Coordinates (Angstroms)
 Number     Number       Type             X           Y           Z
 ---------------------------------------------------------------------
      1          8           0        0.000000    0.000000    0.976637
      2          8           0        0.000000    0.000000    2.329017
      3          8           0        0.000000    0.000000   -2.329017
      4          8           0        0.000000    0.000000   -0.976637
 ---------------------------------------------------------------------

 SCF Done:  E(ROHF) =  -299.171681510     A.U. after   16 cycles
 E2 =    -0.1039110605D+01 EUMP2 =    -0.30021079211478D+03
 CCSD(T)
 CCSD(T)= -0.30019324735D+03

 The electronic state is 5-SGG.
 Alpha  occ. eigenvalues --  -20.78803 -20.78803 -20.73646 -20.73645  -1.60398
 Alpha  occ. eigenvalues --   -1.59235  -1.26447  -1.20386  -0.78133  -0.78133
 Alpha  occ. eigenvalues --   -0.76965  -0.76965  -0.76648  -0.66058  -0.58482
 Alpha  occ. eigenvalues --   -0.58482  -0.54966  -0.54966
 Alpha virt. eigenvalues --    0.22901   0.34262   0.65548   0.67193   0.67193
 Alpha virt. eigenvalues --    0.68032   0.70133   0.70133   0.74668   0.74668
 Alpha virt. eigenvalues --    0.87122   0.87435   0.93172   0.93172   0.94441

 Mulliken charges and spin densities:
               1          2
     1  O   -0.045257   0.825769
     2  O    0.045257   1.174231
     3  O    0.045257   1.174231
     4  O   -0.045257   0.825769
 Sum of Mulliken charges =  -0.00000   4.00000

 Dipole moment (field-independent basis, Debye):
    X=              0.0000    Y=             -0.0000    Z=             -0.0000  Tot=              0.0000
 Quadrupole moment (field-independent basis, Debye-Ang):
   XX=            -20.3201   YY=            -20.3201   ZZ=            -17.9341
   XY=              0.0000   XZ=             -0.0000   YZ=              0.0000

 =-300.1621\CCSD=-300.1425519\CCSD(T)=-300.1932473\RMSD=5.674e-09\PG=D*
 Normal termination of Gaussian 16 at Sat Jan 14 22:22:10 2023.
