 Gaussian 16, Revision A.03,
 Gaussian 16:  ES64L-G16RevA.03 25-Dec-2016

 ---------------------------------------------------------------
 #p ROCCSD(T)/cc-pVTZ Guess=Read SCF=(VeryTight,CDIIS,VShift=10)
 ---------------------------------------------------------------

 ---------
 O2_O2_164
 ---------
 Symbolic Z-matrix:
 Charge =  0 Multiplicity = 5

                         Standard orientation:
 ---------------------------------------------------------------------
 Center     Atomic      Atomic             Coordinates (Angstroms)
 Number     Number       Type             X           Y           Z
 ---------------------------------------------------------------------
      1          8           0        0.000000    0.000000    3.114583
      2          8           0        0.000000    0.000000    4.466963
      3          8           0        0.000000    0.000000   -4.466963
      4          8           0        0.000000    0.000000   -3.114583
 ---------------------------------------------------------------------

 SCF Done:  E(ROHF) =  -299.202861592     A.U. after    3 cycles
 E2 =    -0.1041578518D+01 EUMP2 =    -0.30024444011045D+03
 CCSD(T)
 CCSD(T)= -0.30021921597D+03

 The electronic state is 5-SGG.
 Alpha  occ. eigenvalues --  -20.77259 -20.77259 -20.77223 -20.77223  -1.60064
 Alpha  occ. eigenvalues --   -1.60064  -1.23499  -1.23499  -0.77565  -0.77565
 Alpha  occ. eigenvalues --   -0.77565  -0.77565  -0.72004  -0.72004  -0.57630
 Alpha  occ. eigenvalues --   -0.57630  -0.57630  -0.57630
 Alpha virt. eigenvalues --    0.24880   0.24884   0.67604   0.67619   0.69019
 Alpha virt. eigenvalues --    0.69019   0.69019   0.69019   0.75112   0.75119
 Alpha virt. eigenvalues --    0.79137   0.79137   0.79138   0.79138   0.88527

 Mulliken charges and spin densities:
               1          2
     1  O   -0.000183   0.999654
     2  O    0.000183   1.000346
     3  O    0.000183   1.000346
     4  O   -0.000183   0.999654
 Sum of Mulliken charges =  -0.00000   4.00000

 Dipole moment (field-independent basis, Debye):
    X=              0.0000    Y=             -0.0000    Z=              0.0000  Tot=              0.0000
 Quadrupole moment (field-independent basis, Debye-Ang):
   XX=            -20.3615   YY=            -20.3615   ZZ=            -20.1402
   XY=              0.0000   XZ=              0.0000   YZ=              0.0000

 Q=-300.1879439\CCSD=-300.1692252\CCSD(T)=-300.219216\RMSD=9.824e-09\PG
 Normal termination of Gaussian 16 at Sun Jan 15 01:13:17 2023.
