 Gaussian 16, Revision A.03,
 Gaussian 16:  ES64L-G16RevA.03 25-Dec-2016

 ---------------------------------------------------------------
 #p ROCCSD(T)/cc-pVTZ Guess=Read SCF=(VeryTight,CDIIS,VShift=10)
 ---------------------------------------------------------------

 --------
 O2_O2_96
 --------
 Symbolic Z-matrix:
 Charge =  0 Multiplicity = 5

                         Standard orientation:
 ---------------------------------------------------------------------
 Center     Atomic      Atomic             Coordinates (Angstroms)
 Number     Number       Type             X           Y           Z
 ---------------------------------------------------------------------
      1          8           0        0.000000    0.000000    2.151800
      2          8           0        0.000000    0.000000    3.504180
      3          8           0        0.000000    0.000000   -3.504180
      4          8           0        0.000000    0.000000   -2.151800
 ---------------------------------------------------------------------

 SCF Done:  E(ROHF) =  -299.202875338     A.U. after    4 cycles
 E2 =    -0.1041721109D+01 EUMP2 =    -0.30024459644717D+03
 CCSD(T)
 CCSD(T)= -0.30021931080D+03

 The electronic state is 5-SGG.
 Alpha  occ. eigenvalues --  -20.77272 -20.77272 -20.77226 -20.77226  -1.60072
 Alpha  occ. eigenvalues --   -1.60071  -1.23512  -1.23501  -0.77575  -0.77575
 Alpha  occ. eigenvalues --   -0.77571  -0.77571  -0.72047  -0.71976  -0.57643
 Alpha  occ. eigenvalues --   -0.57643  -0.57632  -0.57632
 Alpha virt. eigenvalues --    0.24145   0.25509   0.64567   0.68938   0.68938
 Alpha virt. eigenvalues --    0.69085   0.69085   0.69630   0.73919   0.77527
 Alpha virt. eigenvalues --    0.78922   0.78922   0.79344   0.79344   0.88516

 Mulliken charges and spin densities:
               1          2
     1  O   -0.000611   0.999019
     2  O    0.000611   1.000981
     3  O    0.000611   1.000981
     4  O   -0.000611   0.999019
 Sum of Mulliken charges =  -0.00000   4.00000

 Dipole moment (field-independent basis, Debye):
    X=              0.0000    Y=              0.0000    Z=             -0.0000  Tot=              0.0000
 Quadrupole moment (field-independent basis, Debye-Ang):
   XX=            -20.3614   YY=            -20.3614   ZZ=            -20.1120
   XY=              0.0000   XZ=              0.0000   YZ=              0.0000

 =-300.1880797\CCSD=-300.169309\CCSD(T)=-300.2193108\RMSD=2.950e-09\PG=
 Normal termination of Gaussian 16 at Sat Jan 14 23:57:30 2023.
