 Gaussian 16, Revision A.03,
 Gaussian 16:  ES64L-G16RevA.03 25-Dec-2016

 ---------------------------------------------------------------
 #p ROCCSD(T)/cc-pVTZ Guess=Read SCF=(VeryTight,CDIIS,VShift=10)
 ---------------------------------------------------------------

 --------
 O2_O2_12
 --------
 Symbolic Z-matrix:
 Charge =  0 Multiplicity = 5

                         Standard orientation:
 ---------------------------------------------------------------------
 Center     Atomic      Atomic             Coordinates (Angstroms)
 Number     Number       Type             X           Y           Z
 ---------------------------------------------------------------------
      1          8           0        0.000000    0.000000    0.962478
      2          8           0        0.000000    0.000000    2.314859
      3          8           0        0.000000    0.000000   -2.314859
      4          8           0        0.000000    0.000000   -0.962478
 ---------------------------------------------------------------------

 SCF Done:  E(ROHF) =  -299.168098185     A.U. after   13 cycles
 E2 =    -0.1037823805D+01 EUMP2 =    -0.30020592198998D+03
 CCSD(T)
 CCSD(T)= -0.30018989367D+03

 The electronic state is 5-SGG.
 Alpha  occ. eigenvalues --  -20.78892 -20.78892 -20.73353 -20.73352  -1.60429
 Alpha  occ. eigenvalues --   -1.59183  -1.26667  -1.20151  -0.78184  -0.78184
 Alpha  occ. eigenvalues --   -0.76967  -0.76967  -0.76873  -0.65668  -0.58517
 Alpha  occ. eigenvalues --   -0.58517  -0.54721  -0.54721
 Alpha virt. eigenvalues --    0.22916   0.34680   0.65402   0.67350   0.67350
 Alpha virt. eigenvalues --    0.67848   0.70103   0.70103   0.74769   0.74769
 Alpha virt. eigenvalues --    0.87168   0.87394   0.93458   0.93458   0.95406

 Mulliken charges and spin densities:
               1          2
     1  O   -0.048970   0.812162
     2  O    0.048970   1.187838
     3  O    0.048970   1.187838
     4  O   -0.048970   0.812162
 Sum of Mulliken charges =  -0.00000   4.00000

 Dipole moment (field-independent basis, Debye):
    X=              0.0000    Y=              0.0000    Z=             -0.0000  Tot=              0.0000
 Quadrupole moment (field-independent basis, Debye-Ang):
   XX=            -20.3145   YY=            -20.3145   ZZ=            -17.7987
   XY=              0.0000   XZ=             -0.0000   YZ=              0.0000

 300.1585938\CCSD=-300.1391783\CCSD(T)=-300.1898937\RMSD=2.333e-09\PG=D
 Normal termination of Gaussian 16 at Sat Jan 14 22:20:59 2023.
