 Gaussian 16, Revision A.03,
 Gaussian 16:  ES64L-G16RevA.03 25-Dec-2016

 ---------------------------------------------------------------
 #p ROCCSD(T)/cc-pVTZ Guess=Read SCF=(VeryTight,CDIIS,VShift=10)
 ---------------------------------------------------------------

 --------
 O2_O2_53
 --------
 Symbolic Z-matrix:
 Charge =  0 Multiplicity = 5

                         Standard orientation:
 ---------------------------------------------------------------------
 Center     Atomic      Atomic             Coordinates (Angstroms)
 Number     Number       Type             X           Y           Z
 ---------------------------------------------------------------------
      1          8           0        0.000000    0.000000    1.542981
      2          8           0        0.000000    0.000000    2.895361
      3          8           0        0.000000    0.000000   -2.895361
      4          8           0        0.000000    0.000000   -1.542981
 ---------------------------------------------------------------------

 SCF Done:  E(ROHF) =  -299.202635239     A.U. after   14 cycles
 E2 =    -0.1042621544D+01 EUMP2 =    -0.30024525678372D+03
 CCSD(T)
 CCSD(T)= -0.30021968446D+03

 The electronic state is 5-SGG.
 Alpha  occ. eigenvalues --  -20.77333 -20.77333 -20.77173 -20.77173  -1.60104
 Alpha  occ. eigenvalues --   -1.60054  -1.23678  -1.23363  -0.77630  -0.77630
 Alpha  occ. eigenvalues --   -0.77530  -0.77530  -0.72539  -0.71511  -0.57756
 Alpha  occ. eigenvalues --   -0.57756  -0.57532  -0.57532
 Alpha virt. eigenvalues --    0.22136   0.27720   0.59754   0.67590   0.67590
 Alpha virt. eigenvalues --    0.69757   0.69848   0.69848   0.72034   0.76462
 Alpha virt. eigenvalues --    0.76462   0.82733   0.82733   0.88307   0.88597

 Mulliken charges and spin densities:
               1          2
     1  O   -0.002613   0.994889
     2  O    0.002613   1.005111
     3  O    0.002613   1.005111
     4  O   -0.002613   0.994889
 Sum of Mulliken charges =  -0.00000   4.00000

 Dipole moment (field-independent basis, Debye):
    X=              0.0000    Y=             -0.0000    Z=             -0.0000  Tot=              0.0000
 Quadrupole moment (field-independent basis, Debye-Ang):
   XX=            -20.3606   YY=            -20.3606   ZZ=            -20.0233
   XY=              0.0000   XZ=              0.0000   YZ=              0.0000

 =-300.1886109\CCSD=-300.1695914\CCSD(T)=-300.2196845\RMSD=8.826e-09\PG
 Normal termination of Gaussian 16 at Sat Jan 14 23:09:25 2023.
