 Gaussian 16, Revision A.03,
 Gaussian 16:  ES64L-G16RevA.03 25-Dec-2016

 ---------------------------------------------------------------
 #p ROCCSD(T)/cc-pVTZ Guess=Read SCF=(VeryTight,CDIIS,VShift=10)
 ---------------------------------------------------------------

 ---------
 O2_O2_281
 ---------
 Symbolic Z-matrix:
 Charge =  0 Multiplicity = 5

                         Standard orientation:
 ---------------------------------------------------------------------
 Center     Atomic      Atomic             Coordinates (Angstroms)
 Number     Number       Type             X           Y           Z
 ---------------------------------------------------------------------
      1          8           0        0.000000    0.000000    4.771137
      2          8           0        0.000000    0.000000    6.123517
      3          8           0        0.000000    0.000000   -6.123517
      4          8           0        0.000000    0.000000   -4.771137
 ---------------------------------------------------------------------

 SCF Done:  E(ROHF) =  -299.202861791     A.U. after    1 cycles
 E2 =    -0.1041557838D+01 EUMP2 =    -0.30024441962871D+03
 CCSD(T)
 CCSD(T)= -0.30021920515D+03

 The electronic state is 5-SGG.
 Alpha  occ. eigenvalues --  -20.77256 -20.77256 -20.77222 -20.77222  -1.60062
 Alpha  occ. eigenvalues --   -1.60062  -1.23497  -1.23497  -0.77563  -0.77563
 Alpha  occ. eigenvalues --   -0.77563  -0.77563  -0.72001  -0.72001  -0.57627
 Alpha  occ. eigenvalues --   -0.57627  -0.57627  -0.57627
 Alpha virt. eigenvalues --    0.24885   0.24885   0.67615   0.67615   0.69021
 Alpha virt. eigenvalues --    0.69021   0.69021   0.69021   0.75119   0.75119
 Alpha virt. eigenvalues --    0.79140   0.79140   0.79140   0.79140   0.88529

 Mulliken charges and spin densities:
               1          2
     1  O   -0.000038   0.999925
     2  O    0.000038   1.000075
     3  O    0.000038   1.000075
     4  O   -0.000038   0.999925
 Sum of Mulliken charges =  -0.00000   4.00000

 Dipole moment (field-independent basis, Debye):
    X=              0.0000    Y=             -0.0000    Z=              0.0000  Tot=              0.0000
 Quadrupole moment (field-independent basis, Debye-Ang):
   XX=            -20.3615   YY=            -20.3615   ZZ=            -20.1532
   XY=              0.0000   XZ=              0.0000   YZ=              0.0000

 DQ=-300.1879259\CCSD=-300.1692158\CCSD(T)=-300.2192052\RMSD=9.430e-09\
 Normal termination of Gaussian 16 at Sun Jan 15 03:25:34 2023.
