 Gaussian 16, Revision A.03,
 Gaussian 16:  ES64L-G16RevA.03 25-Dec-2016

 ---------------------------------------------------------------
 #p ROCCSD(T)/cc-pVTZ Guess=Read SCF=(VeryTight,CDIIS,VShift=10)
 ---------------------------------------------------------------

 --------
 O2_O2_52
 --------
 Symbolic Z-matrix:
 Charge =  0 Multiplicity = 5

                         Standard orientation:
 ---------------------------------------------------------------------
 Center     Atomic      Atomic             Coordinates (Angstroms)
 Number     Number       Type             X           Y           Z
 ---------------------------------------------------------------------
      1          8           0        0.000000    0.000000    1.528822
      2          8           0        0.000000    0.000000    2.881202
      3          8           0        0.000000    0.000000   -2.881202
      4          8           0        0.000000    0.000000   -1.528822
 ---------------------------------------------------------------------

 SCF Done:  E(ROHF) =  -299.202598093     A.U. after   12 cycles
 E2 =    -0.1042670002D+01 EUMP2 =    -0.30024526809517D+03
 CCSD(T)
 CCSD(T)= -0.30021968210D+03

 The electronic state is 5-SGG.
 Alpha  occ. eigenvalues --  -20.77337 -20.77337 -20.77166 -20.77166  -1.60105
 Alpha  occ. eigenvalues --   -1.60052  -1.23690  -1.23351  -0.77632  -0.77632
 Alpha  occ. eigenvalues --   -0.77525  -0.77525  -0.72571  -0.71479  -0.57763
 Alpha  occ. eigenvalues --   -0.57763  -0.57523  -0.57523
 Alpha virt. eigenvalues --    0.22132   0.27792   0.60027   0.67514   0.67514
 Alpha virt. eigenvalues --    0.69688   0.69876   0.69876   0.71997   0.76369
 Alpha virt. eigenvalues --    0.76369   0.82917   0.82917   0.88296   0.88599

 Mulliken charges and spin densities:
               1          2
     1  O   -0.002704   0.994518
     2  O    0.002704   1.005482
     3  O    0.002704   1.005482
     4  O   -0.002704   0.994518
 Sum of Mulliken charges =  -0.00000   4.00000

 Dipole moment (field-independent basis, Debye):
    X=              0.0000    Y=              0.0000    Z=             -0.0000  Tot=              0.0000
 Quadrupole moment (field-independent basis, Debye-Ang):
   XX=            -20.3606   YY=            -20.3606   ZZ=            -20.0173
   XY=              0.0000   XZ=              0.0000   YZ=              0.0000

 =-300.1886163\CCSD=-300.1695837\CCSD(T)=-300.2196821\RMSD=3.977e-09\PG
 Normal termination of Gaussian 16 at Sat Jan 14 23:08:17 2023.
