 Gaussian 16, Revision A.03,
 Gaussian 16:  ES64L-G16RevA.03 25-Dec-2016

 ---------------------------------------------------------------
 #p ROCCSD(T)/cc-pVTZ Guess=Read SCF=(VeryTight,CDIIS,VShift=10)
 ---------------------------------------------------------------

 --------
 O2_O2_10
 --------
 Symbolic Z-matrix:
 Charge =  0 Multiplicity = 5

                         Standard orientation:
 ---------------------------------------------------------------------
 Center     Atomic      Atomic             Coordinates (Angstroms)
 Number     Number       Type             X           Y           Z
 ---------------------------------------------------------------------
      1          8           0        0.000000    0.000000    0.934161
      2          8           0        0.000000    0.000000    2.286542
      3          8           0        0.000000    0.000000   -2.286542
      4          8           0        0.000000    0.000000   -0.934161
 ---------------------------------------------------------------------

 SCF Done:  E(ROHF) =  -299.159728214     A.U. after   12 cycles
 E2 =    -0.1034682565D+01 EUMP2 =    -0.30019441077913D+03
 CCSD(T)
 CCSD(T)= -0.30018197458D+03

 The electronic state is 5-SGG.
 Alpha  occ. eigenvalues --  -20.79064 -20.79063 -20.72728 -20.72727  -1.60501
 Alpha  occ. eigenvalues --   -1.59076  -1.27162  -1.19636  -0.78303  -0.78303
 Alpha  occ. eigenvalues --   -0.77351  -0.76982  -0.76982  -0.64810  -0.58596
 Alpha  occ. eigenvalues --   -0.58596  -0.54172  -0.54172
 Alpha virt. eigenvalues --    0.22934   0.35603   0.65118   0.67474   0.67655
 Alpha virt. eigenvalues --    0.67655   0.70041   0.70041   0.75037   0.75037
 Alpha virt. eigenvalues --    0.87183   0.87302   0.94027   0.94027   0.97282

 Mulliken charges and spin densities:
               1          2
     1  O   -0.056725   0.783279
     2  O    0.056725   1.216721
     3  O    0.056725   1.216721
     4  O   -0.056725   0.783279
 Sum of Mulliken charges =  -0.00000   4.00000

 Dipole moment (field-independent basis, Debye):
    X=              0.0000    Y=              0.0000    Z=              0.0000  Tot=              0.0000
 Quadrupole moment (field-independent basis, Debye-Ang):
   XX=            -20.3011   YY=            -20.3011   ZZ=            -17.5293
   XY=              0.0000   XZ=             -0.0000   YZ=              0.0000

 =-300.1502636\CCSD=-300.1312186\CCSD(T)=-300.1819746\RMSD=7.541e-09\PG
 Normal termination of Gaussian 16 at Sat Jan 14 22:18:36 2023.
