 Gaussian 16, Revision A.03,
 Gaussian 16:  ES64L-G16RevA.03 25-Dec-2016

 ---------------------------------------------------------------
 #p ROCCSD(T)/cc-pVTZ Guess=Read SCF=(VeryTight,CDIIS,VShift=10)
 ---------------------------------------------------------------

 --------
 O2_O2_43
 --------
 Symbolic Z-matrix:
 Charge =  0 Multiplicity = 5

                         Standard orientation:
 ---------------------------------------------------------------------
 Center     Atomic      Atomic             Coordinates (Angstroms)
 Number     Number       Type             X           Y           Z
 ---------------------------------------------------------------------
      1          8           0        0.000000    0.000000    1.401395
      2          8           0        0.000000    0.000000    2.753775
      3          8           0        0.000000    0.000000   -2.753775
      4          8           0        0.000000    0.000000   -1.401395
 ---------------------------------------------------------------------

 SCF Done:  E(ROHF) =  -299.201960933     A.U. after   12 cycles
 E2 =    -0.1043219030D+01 EUMP2 =    -0.30024517996296D+03
 CCSD(T)
 CCSD(T)= -0.30021944673D+03

 The electronic state is 5-SGG.
 Alpha  occ. eigenvalues --  -20.77398 -20.77397 -20.77052 -20.77052  -1.60124
 Alpha  occ. eigenvalues --   -1.60010  -1.23856  -1.23187  -0.77667  -0.77667
 Alpha  occ. eigenvalues --   -0.77466  -0.77466  -0.72956  -0.71087  -0.57842
 Alpha  occ. eigenvalues --   -0.57842  -0.57411  -0.57411
 Alpha virt. eigenvalues --    0.22206   0.28525   0.63837   0.66754   0.66754
 Alpha virt. eigenvalues --    0.68962   0.70111   0.70111   0.71600   0.75561
 Alpha virt. eigenvalues --    0.75561   0.84848   0.84848   0.88176   0.88618

 Mulliken charges and spin densities:
               1          2
     1  O   -0.003839   0.988845
     2  O    0.003839   1.011155
     3  O    0.003839   1.011155
     4  O   -0.003839   0.988845
 Sum of Mulliken charges =  -0.00000   4.00000

 Dipole moment (field-independent basis, Debye):
    X=              0.0000    Y=             -0.0000    Z=             -0.0000  Tot=              0.0000
 Quadrupole moment (field-independent basis, Debye-Ang):
   XX=            -20.3600   YY=            -20.3600   ZZ=            -19.9301
   XY=              0.0000   XZ=              0.0000   YZ=              0.0000

 0.1884694\CCSD=-300.1692854\CCSD(T)=-300.2194467\RMSD=2.320e-10\PG=D*H
 Normal termination of Gaussian 16 at Sat Jan 14 22:56:32 2023.
