 Gaussian 16, Revision A.03,
 Gaussian 16:  ES64L-G16RevA.03 25-Dec-2016

 ---------------------------------------------------------------
 #p ROCCSD(T)/cc-pVTZ Guess=Read SCF=(VeryTight,CDIIS,VShift=10)
 ---------------------------------------------------------------

 --------
 O2_O2_68
 --------
 Symbolic Z-matrix:
 Charge =  0 Multiplicity = 5

                         Standard orientation:
 ---------------------------------------------------------------------
 Center     Atomic      Atomic             Coordinates (Angstroms)
 Number     Number       Type             X           Y           Z
 ---------------------------------------------------------------------
      1          8           0        0.000000    0.000000    1.755359
      2          8           0        0.000000    0.000000    3.107739
      3          8           0        0.000000    0.000000   -3.107739
      4          8           0        0.000000    0.000000   -1.755359
 ---------------------------------------------------------------------

 SCF Done:  E(ROHF) =  -299.202872922     A.U. after   12 cycles
 E2 =    -0.1042103522D+01 EUMP2 =    -0.30024497644407D+03
 CCSD(T)
 CCSD(T)= -0.30021955700D+03

 The electronic state is 5-SGG.
 Alpha  occ. eigenvalues --  -20.77297 -20.77297 -20.77223 -20.77223  -1.60088
 Alpha  occ. eigenvalues --   -1.60073  -1.23566  -1.23466  -0.77599  -0.77599
 Alpha  occ. eigenvalues --   -0.77565  -0.77565  -0.72227  -0.71814  -0.57688
 Alpha  occ. eigenvalues --   -0.57688  -0.57605  -0.57605
 Alpha virt. eigenvalues --    0.22565   0.26775   0.58767   0.68426   0.68426
 Alpha virt. eigenvalues --    0.69457   0.69457   0.70443   0.72568   0.77759
 Alpha virt. eigenvalues --    0.77759   0.80683   0.80683   0.88413   0.88566

 Mulliken charges and spin densities:
               1          2
     1  O   -0.001490   0.997834
     2  O    0.001490   1.002166
     3  O    0.001490   1.002166
     4  O   -0.001490   0.997834
 Sum of Mulliken charges =  -0.00000   4.00000

 Dipole moment (field-independent basis, Debye):
    X=              0.0000    Y=             -0.0000    Z=              0.0000  Tot=              0.0000
 Quadrupole moment (field-independent basis, Debye-Ang):
   XX=            -20.3611   YY=            -20.3611   ZZ=            -20.0750
   XY=              0.0000   XZ=              0.0000   YZ=              0.0000

 =-300.1883981\CCSD=-300.1695187\CCSD(T)=-300.219557\RMSD=4.880e-09\PG=
 Normal termination of Gaussian 16 at Sat Jan 14 23:26:45 2023.
