 Gaussian 16, Revision A.03,
 Gaussian 16:  ES64L-G16RevA.03 25-Dec-2016

 ---------------------------------------------------------------
 #p ROCCSD(T)/cc-pVTZ Guess=Read SCF=(VeryTight,CDIIS,VShift=10)
 ---------------------------------------------------------------

 --------
 O2_O2_38
 --------
 Symbolic Z-matrix:
 Charge =  0 Multiplicity = 5

                         Standard orientation:
 ---------------------------------------------------------------------
 Center     Atomic      Atomic             Coordinates (Angstroms)
 Number     Number       Type             X           Y           Z
 ---------------------------------------------------------------------
      1          8           0        0.000000    0.000000    1.330602
      2          8           0        0.000000    0.000000    2.682982
      3          8           0        0.000000    0.000000   -2.682982
      4          8           0        0.000000    0.000000   -1.330602
 ---------------------------------------------------------------------

 SCF Done:  E(ROHF) =  -299.201172240     A.U. after   14 cycles
 E2 =    -0.1043622401D+01 EUMP2 =    -0.30024479464101D+03
 CCSD(T)
 CCSD(T)= -0.30021897387D+03

 The electronic state is 5-SGG.
 Alpha  occ. eigenvalues --  -20.77462 -20.77462 -20.76923 -20.76923  -1.60139
 Alpha  occ. eigenvalues --   -1.59967  -1.24006  -1.23036  -0.77693  -0.77693
 Alpha  occ. eigenvalues --   -0.77411  -0.77411  -0.73266  -0.70757  -0.57905
 Alpha  occ. eigenvalues --   -0.57905  -0.57307  -0.57307
 Alpha virt. eigenvalues --    0.22302   0.29021   0.66334   0.66334   0.67060
 Alpha virt. eigenvalues --    0.68503   0.70217   0.70217   0.71299   0.75176
 Alpha virt. eigenvalues --    0.75176   0.86103   0.86103   0.88091   0.88629

 Mulliken charges and spin densities:
               1          2
     1  O   -0.005096   0.982516
     2  O    0.005096   1.017484
     3  O    0.005096   1.017484
     4  O   -0.005096   0.982516
 Sum of Mulliken charges =   0.00000   4.00000

 Dipole moment (field-independent basis, Debye):
    X=              0.0000    Y=              0.0000    Z=             -0.0000  Tot=              0.0000
 Quadrupole moment (field-independent basis, Debye-Ang):
   XX=            -20.3594   YY=            -20.3594   ZZ=            -19.8367
   XY=              0.0000   XZ=              0.0000   YZ=              0.0000

 =-300.1880627\CCSD=-300.1687618\CCSD(T)=-300.2189739\RMSD=2.751e-09\PG
 Normal termination of Gaussian 16 at Sat Jan 14 22:50:58 2023.
