 Gaussian 16, Revision A.03,
 Gaussian 16:  ES64L-G16RevA.03 25-Dec-2016

 ---------------------------------------------------------------
 #p ROCCSD(T)/cc-pVTZ Guess=Read SCF=(VeryTight,CDIIS,VShift=10)
 ---------------------------------------------------------------

 --------
 O2_O2_36
 --------
 Symbolic Z-matrix:
 Charge =  0 Multiplicity = 5

                         Standard orientation:
 ---------------------------------------------------------------------
 Center     Atomic      Atomic             Coordinates (Angstroms)
 Number     Number       Type             X           Y           Z
 ---------------------------------------------------------------------
      1          8           0        0.000000    0.000000    1.302285
      2          8           0        0.000000    0.000000    2.654665
      3          8           0        0.000000    0.000000   -2.654665
      4          8           0        0.000000    0.000000   -1.302285
 ---------------------------------------------------------------------

 SCF Done:  E(ROHF) =  -299.200700026     A.U. after   14 cycles
 E2 =    -0.1043800906D+01 EUMP2 =    -0.30024450093285D+03
 CCSD(T)
 CCSD(T)= -0.30021865349D+03

 The electronic state is 5-SGG.
 Alpha  occ. eigenvalues --  -20.77499 -20.77499 -20.76849 -20.76849  -1.60147
 Alpha  occ. eigenvalues --   -1.59943  -1.24082  -1.22958  -0.77705  -0.77705
 Alpha  occ. eigenvalues --   -0.77383  -0.77383  -0.73415  -0.70593  -0.57935
 Alpha  occ. eigenvalues --   -0.57935  -0.57252  -0.57252
 Alpha virt. eigenvalues --    0.22346   0.29245   0.66186   0.66186   0.68313
 Alpha virt. eigenvalues --    0.68580   0.70252   0.70252   0.71154   0.75039
 Alpha virt. eigenvalues --    0.75039   0.86633   0.86633   0.88053   0.88635

 Mulliken charges and spin densities:
               1          2
     1  O   -0.005849   0.978904
     2  O    0.005849   1.021096
     3  O    0.005849   1.021096
     4  O   -0.005849   0.978904
 Sum of Mulliken charges =  -0.00000   4.00000

 Dipole moment (field-independent basis, Debye):
    X=              0.0000    Y=              0.0000    Z=              0.0000  Tot=              0.0000
 Quadrupole moment (field-independent basis, Debye-Ang):
   XX=            -20.3591   YY=            -20.3591   ZZ=            -19.7846
   XY=              0.0000   XZ=              0.0000   YZ=              0.0000

 1877727\CCSD=-300.1684169\CCSD(T)=-300.2186535\RMSD=3.624e-09\PG=D*H [
 Normal termination of Gaussian 16 at Sat Jan 14 22:48:46 2023.
