 Gaussian 16, Revision A.03,
 Gaussian 16:  ES64L-G16RevA.03 25-Dec-2016

 ---------------------------------------------------------------
 #p ROCCSD(T)/cc-pVTZ Guess=Read SCF=(VeryTight,CDIIS,VShift=10)
 ---------------------------------------------------------------

 --------
 O2_O2_63
 --------
 Symbolic Z-matrix:
 Charge =  0 Multiplicity = 5

                         Standard orientation:
 ---------------------------------------------------------------------
 Center     Atomic      Atomic             Coordinates (Angstroms)
 Number     Number       Type             X           Y           Z
 ---------------------------------------------------------------------
      1          8           0        0.000000    0.000000    1.684566
      2          8           0        0.000000    0.000000    3.036946
      3          8           0        0.000000    0.000000   -3.036946
      4          8           0        0.000000    0.000000   -1.684566
 ---------------------------------------------------------------------

 SCF Done:  E(ROHF) =  -299.202836747     A.U. after   12 cycles
 E2 =    -0.1042239906D+01 EUMP2 =    -0.30024507665253D+03
 CCSD(T)
 CCSD(T)= -0.30021961526D+03

 The electronic state is 5-SGG.
 Alpha  occ. eigenvalues --  -20.77306 -20.77306 -20.77214 -20.77214  -1.60092
 Alpha  occ. eigenvalues --   -1.60070  -1.23591  -1.23445  -0.77607  -0.77607
 Alpha  occ. eigenvalues --   -0.77558  -0.77558  -0.72302  -0.71742  -0.57705
 Alpha  occ. eigenvalues --   -0.57705  -0.57589  -0.57589
 Alpha virt. eigenvalues --    0.22344   0.27066   0.58503   0.68209   0.68209
 Alpha virt. eigenvalues --    0.69577   0.69577   0.70292   0.72387   0.77367
 Alpha virt. eigenvalues --    0.77367   0.81224   0.81224   0.88392   0.88576

 Mulliken charges and spin densities:
               1          2
     1  O   -0.001821   0.997216
     2  O    0.001821   1.002784
     3  O    0.001821   1.002784
     4  O   -0.001821   0.997216
 Sum of Mulliken charges =  -0.00000   4.00000

 Dipole moment (field-independent basis, Debye):
    X=              0.0000    Y=              0.0000    Z=              0.0000  Tot=              0.0000
 Quadrupole moment (field-independent basis, Debye-Ang):
   XX=            -20.3610   YY=            -20.3610   ZZ=            -20.0628
   XY=              0.0000   XZ=              0.0000   YZ=              0.0000

 =-300.1884793\CCSD=-300.169563\CCSD(T)=-300.2196153\RMSD=1.947e-09\PG=
 Normal termination of Gaussian 16 at Sat Jan 14 23:20:57 2023.
