 Gaussian 16, Revision A.03,
 Gaussian 16:  ES64L-G16RevA.03 25-Dec-2016

 ---------------------------------------------------------------
 #p ROCCSD(T)/cc-pVTZ Guess=Read SCF=(VeryTight,CDIIS,VShift=10)
 ---------------------------------------------------------------

 --------
 O2_O2_30
 --------
 Symbolic Z-matrix:
 Charge =  0 Multiplicity = 5

                         Standard orientation:
 ---------------------------------------------------------------------
 Center     Atomic      Atomic             Coordinates (Angstroms)
 Number     Number       Type             X           Y           Z
 ---------------------------------------------------------------------
      1          8           0        0.000000    0.000000    1.217333
      2          8           0        0.000000    0.000000    2.569713
      3          8           0        0.000000    0.000000   -2.569713
      4          8           0        0.000000    0.000000   -1.217333
 ---------------------------------------------------------------------

 SCF Done:  E(ROHF) =  -299.198392765     A.U. after   15 cycles
 E2 =    -0.1044331964D+01 EUMP2 =    -0.30024272472853D+03
 CCSD(T)
 CCSD(T)= -0.30021692038D+03

 The electronic state is 5-SGG.
 Alpha  occ. eigenvalues --  -20.77662 -20.77662 -20.76510 -20.76510  -1.60176
 Alpha  occ. eigenvalues --   -1.59845  -1.24389  -1.22638  -0.77752  -0.77752
 Alpha  occ. eigenvalues --   -0.77278  -0.77278  -0.73962  -0.69962  -0.58043
 Alpha  occ. eigenvalues --   -0.58043  -0.57020  -0.57020
 Alpha virt. eigenvalues --    0.22489   0.30032   0.65889   0.65889   0.67715
 Alpha virt. eigenvalues --    0.70323   0.70323   0.70607   0.73913   0.74697
 Alpha virt. eigenvalues --    0.74697   0.87926   0.88287   0.88287   0.88672

 Mulliken charges and spin densities:
               1          2
     1  O   -0.009512   0.962369
     2  O    0.009512   1.037631
     3  O    0.009512   1.037631
     4  O   -0.009512   0.962369
 Sum of Mulliken charges =   0.00000   4.00000

 Dipole moment (field-independent basis, Debye):
    X=              0.0000    Y=              0.0000    Z=              0.0000  Tot=              0.0000
 Quadrupole moment (field-independent basis, Debye-Ang):
   XX=            -20.3572   YY=            -20.3572   ZZ=            -19.5532
   XY=              0.0000   XZ=              0.0000   YZ=              0.0000

 =-300.18614\CCSD=-300.1665923\CCSD(T)=-300.2169204\RMSD=2.523e-09\PG=D
 Normal termination of Gaussian 16 at Sat Jan 14 22:41:46 2023.
