 Gaussian 16, Revision A.03,
 Gaussian 16:  ES64L-G16RevA.03 25-Dec-2016

 ---------------------------------------------------------------
 #p ROCCSD(T)/cc-pVTZ Guess=Read SCF=(VeryTight,CDIIS,VShift=10)
 ---------------------------------------------------------------

 ---------
 O2_O2_231
 ---------
 Symbolic Z-matrix:
 Charge =  0 Multiplicity = 5

                         Standard orientation:
 ---------------------------------------------------------------------
 Center     Atomic      Atomic             Coordinates (Angstroms)
 Number     Number       Type             X           Y           Z
 ---------------------------------------------------------------------
      1          8           0        0.000000    0.000000    4.063208
      2          8           0        0.000000    0.000000    5.415588
      3          8           0        0.000000    0.000000   -5.415588
      4          8           0        0.000000    0.000000   -4.063208
 ---------------------------------------------------------------------

 SCF Done:  E(ROHF) =  -299.202861764     A.U. after    5 cycles
 E2 =    -0.1041561095D+01 EUMP2 =    -0.30024442285910D+03
 CCSD(T)
 CCSD(T)= -0.30021920682D+03

 The electronic state is 5-SGG.
 Alpha  occ. eigenvalues --  -20.77256 -20.77256 -20.77222 -20.77222  -1.60063
 Alpha  occ. eigenvalues --   -1.60063  -1.23497  -1.23497  -0.77564  -0.77564
 Alpha  occ. eigenvalues --   -0.77564  -0.77564  -0.72002  -0.72002  -0.57628
 Alpha  occ. eigenvalues --   -0.57628  -0.57628  -0.57628
 Alpha virt. eigenvalues --    0.24884   0.24884   0.67614   0.67614   0.69021
 Alpha virt. eigenvalues --    0.69021   0.69021   0.69021   0.75118   0.75118
 Alpha virt. eigenvalues --    0.79139   0.79139   0.79139   0.79139   0.88529

 Mulliken charges and spin densities:
               1          2
     1  O   -0.000087   0.999824
     2  O    0.000087   1.000176
     3  O    0.000087   1.000176
     4  O   -0.000087   0.999824
 Sum of Mulliken charges =  -0.00000   4.00000

 Dipole moment (field-independent basis, Debye):
    X=              0.0000    Y=              0.0000    Z=              0.0000  Tot=              0.0000
 Quadrupole moment (field-independent basis, Debye-Ang):
   XX=            -20.3615   YY=            -20.3615   ZZ=            -20.1478
   XY=              0.0000   XZ=              0.0000   YZ=              0.0000

 Q=-300.1879288\CCSD=-300.1692172\CCSD(T)=-300.2192068\RMSD=1.259e-09\P
 Normal termination of Gaussian 16 at Sun Jan 15 02:28:01 2023.
