 Gaussian 16, Revision A.03,
 Gaussian 16:  ES64L-G16RevA.03 25-Dec-2016

 ---------------------------------------------------------------
 #p ROCCSD(T)/cc-pVTZ Guess=Read SCF=(VeryTight,CDIIS,VShift=10)
 ---------------------------------------------------------------

 ---------
 O2_O2_100
 ---------
 Symbolic Z-matrix:
 Charge =  0 Multiplicity = 5

                         Standard orientation:
 ---------------------------------------------------------------------
 Center     Atomic      Atomic             Coordinates (Angstroms)
 Number     Number       Type             X           Y           Z
 ---------------------------------------------------------------------
      1          8           0        0.000000    0.000000    2.208433
      2          8           0        0.000000    0.000000    3.560814
      3          8           0        0.000000    0.000000   -3.560814
      4          8           0        0.000000    0.000000   -2.208433
 ---------------------------------------------------------------------

 SCF Done:  E(ROHF) =  -299.202871138     A.U. after    5 cycles
 E2 =    -0.1041698236D+01 EUMP2 =    -0.30024456937343D+03
 CCSD(T)
 CCSD(T)= -0.30021929302D+03

 The electronic state is 5-SGG.
 Alpha  occ. eigenvalues --  -20.77269 -20.77269 -20.77227 -20.77227  -1.60071
 Alpha  occ. eigenvalues --   -1.60070  -1.23510  -1.23502  -0.77573  -0.77573
 Alpha  occ. eigenvalues --   -0.77570  -0.77570  -0.72038  -0.71983  -0.57640
 Alpha  occ. eigenvalues --   -0.57640  -0.57632  -0.57632
 Alpha virt. eigenvalues --    0.24299   0.25388   0.65239   0.68960   0.68960
 Alpha virt. eigenvalues --    0.69066   0.69066   0.69327   0.74128   0.76840
 Alpha virt. eigenvalues --    0.78981   0.78981   0.79285   0.79285   0.88519

 Mulliken charges and spin densities:
               1          2
     1  O   -0.000529   0.999151
     2  O    0.000529   1.000849
     3  O    0.000529   1.000849
     4  O   -0.000529   0.999151
 Sum of Mulliken charges =   0.00000   4.00000

 Dipole moment (field-independent basis, Debye):
    X=              0.0000    Y=             -0.0000    Z=              0.0000  Tot=              0.0000
 Quadrupole moment (field-independent basis, Debye-Ang):
   XX=            -20.3614   YY=            -20.3614   ZZ=            -20.1173
   XY=              0.0000   XZ=              0.0000   YZ=              0.0000

 Q=-300.1880563\CCSD=-300.1692932\CCSD(T)=-300.219293\RMSD=2.629e-09\PG
 Normal termination of Gaussian 16 at Sun Jan 15 00:02:09 2023.
