 Gaussian 16, Revision A.03,
 Gaussian 16:  ES64L-G16RevA.03 25-Dec-2016

 ---------------------------------------------------------------
 #p ROCCSD(T)/cc-pVTZ Guess=Read SCF=(VeryTight,CDIIS,VShift=10)
 ---------------------------------------------------------------

 --------
 O2_O2_87
 --------
 Symbolic Z-matrix:
 Charge =  0 Multiplicity = 5

                         Standard orientation:
 ---------------------------------------------------------------------
 Center     Atomic      Atomic             Coordinates (Angstroms)
 Number     Number       Type             X           Y           Z
 ---------------------------------------------------------------------
      1          8           0        0.000000    0.000000    2.024372
      2          8           0        0.000000    0.000000    3.376752
      3          8           0        0.000000    0.000000   -3.376752
      4          8           0        0.000000    0.000000   -2.024372
 ---------------------------------------------------------------------

 SCF Done:  E(ROHF) =  -299.202886755     A.U. after   16 cycles
 E2 =    -0.1041793167D+01 EUMP2 =    -0.30024467992141D+03
 CCSD(T)
 CCSD(T)= -0.30021936631D+03

 The electronic state is 5-SGG.
 Alpha  occ. eigenvalues --  -20.77276 -20.77276 -20.77229 -20.77229  -1.60076
 Alpha  occ. eigenvalues --   -1.60073  -1.23521  -1.23498  -0.77580  -0.77580
 Alpha  occ. eigenvalues --   -0.77571  -0.77571  -0.72078  -0.71950  -0.57651
 Alpha  occ. eigenvalues --   -0.57651  -0.57629  -0.57629
 Alpha virt. eigenvalues --    0.23701   0.25842   0.62655   0.68859   0.68859
 Alpha virt. eigenvalues --    0.69152   0.69152   0.70202   0.73431   0.78716
 Alpha virt. eigenvalues --    0.78716   0.79557   0.79557   0.79996   0.88503

 Mulliken charges and spin densities:
               1          2
     1  O   -0.000738   0.998914
     2  O    0.000738   1.001086
     3  O    0.000738   1.001086
     4  O   -0.000738   0.998914
 Sum of Mulliken charges =  -0.00000   4.00000

 Dipole moment (field-independent basis, Debye):
    X=              0.0000    Y=             -0.0000    Z=              0.0000  Tot=              0.0000
 Quadrupole moment (field-independent basis, Debye-Ang):
   XX=            -20.3614   YY=            -20.3614   ZZ=            -20.1053
   XY=              0.0000   XZ=              0.0000   YZ=              0.0000

 =-300.1881509\CCSD=-300.1693582\CCSD(T)=-300.2193663\RMSD=6.423e-09\PG
 Normal termination of Gaussian 16 at Sat Jan 14 23:47:47 2023.
