 Gaussian 16, Revision A.03,
 Gaussian 16:  ES64L-G16RevA.03 25-Dec-2016

 ---------------------------------------------------------------
 #p ROCCSD(T)/cc-pVTZ Guess=Read SCF=(VeryTight,CDIIS,VShift=10)
 ---------------------------------------------------------------

 --------
 O2_O2_97
 --------
 Symbolic Z-matrix:
 Charge =  0 Multiplicity = 5

                         Standard orientation:
 ---------------------------------------------------------------------
 Center     Atomic      Atomic             Coordinates (Angstroms)
 Number     Number       Type             X           Y           Z
 ---------------------------------------------------------------------
      1          8           0        0.000000    0.000000    2.165958
      2          8           0        0.000000    0.000000    3.518338
      3          8           0        0.000000    0.000000   -3.518338
      4          8           0        0.000000    0.000000   -2.165958
 ---------------------------------------------------------------------

 SCF Done:  E(ROHF) =  -299.202874209     A.U. after    5 cycles
 E2 =    -0.1041714948D+01 EUMP2 =    -0.30024458915664D+03
 CCSD(T)
 CCSD(T)= -0.30021930600D+03

 The electronic state is 5-SGG.
 Alpha  occ. eigenvalues --  -20.77271 -20.77271 -20.77226 -20.77226  -1.60072
 Alpha  occ. eigenvalues --   -1.60071  -1.23511  -1.23501  -0.77574  -0.77574
 Alpha  occ. eigenvalues --   -0.77570  -0.77570  -0.72045  -0.71978  -0.57642
 Alpha  occ. eigenvalues --   -0.57642  -0.57632  -0.57632
 Alpha virt. eigenvalues --    0.24186   0.25477   0.64746   0.68944   0.68944
 Alpha virt. eigenvalues --    0.69080   0.69080   0.69555   0.73972   0.77336
 Alpha virt. eigenvalues --    0.78938   0.78938   0.79327   0.79327   0.88517

 Mulliken charges and spin densities:
               1          2
     1  O   -0.000600   0.999030
     2  O    0.000600   1.000970
     3  O    0.000600   1.000970
     4  O   -0.000600   0.999030
 Sum of Mulliken charges =  -0.00000   4.00000

 Dipole moment (field-independent basis, Debye):
    X=              0.0000    Y=              0.0000    Z=              0.0000  Tot=              0.0000
 Quadrupole moment (field-independent basis, Debye-Ang):
   XX=            -20.3614   YY=            -20.3614   ZZ=            -20.1126
   XY=              0.0000   XZ=              0.0000   YZ=              0.0000

 =-300.1880734\CCSD=-300.1693048\CCSD(T)=-300.219306\RMSD=6.011e-09\PG=
 Normal termination of Gaussian 16 at Sat Jan 14 23:58:36 2023.
