 Gaussian 16, Revision A.03,
 Gaussian 16:  ES64L-G16RevA.03 25-Dec-2016

 ---------------------------------------------------------------
 #p ROCCSD(T)/cc-pVTZ Guess=Read SCF=(VeryTight,CDIIS,VShift=10)
 ---------------------------------------------------------------

 ---------
 O2_O2_118
 ---------
 Symbolic Z-matrix:
 Charge =  0 Multiplicity = 5

                         Standard orientation:
 ---------------------------------------------------------------------
 Center     Atomic      Atomic             Coordinates (Angstroms)
 Number     Number       Type             X           Y           Z
 ---------------------------------------------------------------------
      1          8           0        0.000000    0.000000    2.463288
      2          8           0        0.000000    0.000000    3.815668
      3          8           0        0.000000    0.000000   -3.815668
      4          8           0        0.000000    0.000000   -2.463288
 ---------------------------------------------------------------------

 SCF Done:  E(ROHF) =  -299.202862329     A.U. after    7 cycles
 E2 =    -0.1041634216D+01 EUMP2 =    -0.30024449654478D+03
 CCSD(T)
 CCSD(T)= -0.30021924753D+03

 The electronic state is 5-SGG.
 Alpha  occ. eigenvalues --  -20.77264 -20.77264 -20.77225 -20.77225  -1.60068
 Alpha  occ. eigenvalues --   -1.60068  -1.23503  -1.23502  -0.77569  -0.77569
 Alpha  occ. eigenvalues --   -0.77568  -0.77568  -0.72015  -0.72000  -0.57634
 Alpha  occ. eigenvalues --   -0.57634  -0.57632  -0.57632
 Alpha virt. eigenvalues --    0.24710   0.25039   0.66966   0.68194   0.69006
 Alpha virt. eigenvalues --    0.69006   0.69027   0.69027   0.74808   0.75468
 Alpha virt. eigenvalues --    0.79104   0.79104   0.79165   0.79165   0.88523

 Mulliken charges and spin densities:
               1          2
     1  O   -0.000388   0.999308
     2  O    0.000388   1.000692
     3  O    0.000388   1.000692
     4  O   -0.000388   0.999308
 Sum of Mulliken charges =  -0.00000   4.00000

 Dipole moment (field-independent basis, Debye):
    X=              0.0000    Y=             -0.0000    Z=              0.0000  Tot=              0.0000
 Quadrupole moment (field-independent basis, Debye-Ang):
   XX=            -20.3615   YY=            -20.3615   ZZ=            -20.1260
   XY=              0.0000   XZ=              0.0000   YZ=              0.0000

 Q=-300.1879931\CCSD=-300.1692527\CCSD(T)=-300.2192475\RMSD=2.487e-09\P
 Normal termination of Gaussian 16 at Sun Jan 15 00:21:49 2023.
