 Gaussian 16, Revision A.03,
 Gaussian 16:  ES64L-G16RevA.03 25-Dec-2016

 ---------------------------------------------------------------
 #p ROCCSD(T)/cc-pVTZ Guess=Read SCF=(VeryTight,CDIIS,VShift=10)
 ---------------------------------------------------------------

 -------
 O2_O2_6
 -------
 Symbolic Z-matrix:
 Charge =  0 Multiplicity = 5

                         Standard orientation:
 ---------------------------------------------------------------------
 Center     Atomic      Atomic             Coordinates (Angstroms)
 Number     Number       Type             X           Y           Z
 ---------------------------------------------------------------------
      1          8           0        0.000000    0.000000    0.877527
      2          8           0        0.000000    0.000000    2.229907
      3          8           0        0.000000    0.000000   -2.229907
      4          8           0        0.000000    0.000000   -0.877527
 ---------------------------------------------------------------------

 SCF Done:  E(ROHF) =  -299.136972162     A.U. after   12 cycles
 E2 =    -0.1026034270D+01 EUMP2 =    -0.30016300643119D+03
 CCSD(T)
 CCSD(T)= -0.30016001415D+03

 The electronic state is 5-SGG.
 Alpha  occ. eigenvalues --  -20.79339 -20.79339 -20.71345 -20.71344  -1.60710
 Alpha  occ. eigenvalues --   -1.58842  -1.28434  -1.18413  -0.78605  -0.78605
 Alpha  occ. eigenvalues --   -0.78420  -0.77054  -0.77054  -0.62729  -0.58830
 Alpha  occ. eigenvalues --   -0.58830  -0.52829  -0.52829
 Alpha virt. eigenvalues --    0.22896   0.37852   0.64630   0.66698   0.68152
 Alpha virt. eigenvalues --    0.68152   0.69914   0.69914   0.75883   0.75883
 Alpha virt. eigenvalues --    0.87028   0.87068   0.95127   0.95127   1.00628

 Mulliken charges and spin densities:
               1          2
     1  O   -0.072569   0.720204
     2  O    0.072569   1.279796
     3  O    0.072569   1.279796
     4  O   -0.072569   0.720204
 Sum of Mulliken charges =   0.00000   4.00000

 Dipole moment (field-independent basis, Debye):
    X=              0.0000    Y=              0.0000    Z=             -0.0000  Tot=              0.0000
 Quadrupole moment (field-independent basis, Debye-Ang):
   XX=            -20.2638   YY=            -20.2638   ZZ=            -17.0374
   XY=              0.0000   XZ=             -0.0000   YZ=              0.0000

 -300.1269186\CCSD=-300.1091482\CCSD(T)=-300.1600141\RMSD=2.633e-09\PG=
 Normal termination of Gaussian 16 at Sat Jan 14 22:13:52 2023.
