 Gaussian 16, Revision A.03,
 Gaussian 16:  ES64L-G16RevA.03 25-Dec-2016

 ---------------------------------------------------------------
 #p ROCCSD(T)/cc-pVTZ Guess=Read SCF=(VeryTight,CDIIS,VShift=10)
 ---------------------------------------------------------------

 ---------
 O2_O2_250
 ---------
 Symbolic Z-matrix:
 Charge =  0 Multiplicity = 5

                         Standard orientation:
 ---------------------------------------------------------------------
 Center     Atomic      Atomic             Coordinates (Angstroms)
 Number     Number       Type             X           Y           Z
 ---------------------------------------------------------------------
      1          8           0        0.000000    0.000000    4.332221
      2          8           0        0.000000    0.000000    5.684601
      3          8           0        0.000000    0.000000   -5.684601
      4          8           0        0.000000    0.000000   -4.332221
 ---------------------------------------------------------------------

 SCF Done:  E(ROHF) =  -299.202861778     A.U. after    1 cycles
 E2 =    -0.1041559460D+01 EUMP2 =    -0.30024442123790D+03
 CCSD(T)
 CCSD(T)= -0.30021920598D+03

 The electronic state is 5-SGG.
 Alpha  occ. eigenvalues --  -20.77256 -20.77256 -20.77222 -20.77222  -1.60062
 Alpha  occ. eigenvalues --   -1.60062  -1.23497  -1.23497  -0.77563  -0.77563
 Alpha  occ. eigenvalues --   -0.77563  -0.77563  -0.72001  -0.72001  -0.57628
 Alpha  occ. eigenvalues --   -0.57628  -0.57628  -0.57628
 Alpha virt. eigenvalues --    0.24885   0.24885   0.67614   0.67614   0.69021
 Alpha virt. eigenvalues --    0.69021   0.69021   0.69021   0.75118   0.75118
 Alpha virt. eigenvalues --    0.79140   0.79140   0.79140   0.79140   0.88529

 Mulliken charges and spin densities:
               1          2
     1  O   -0.000048   0.999911
     2  O    0.000048   1.000089
     3  O    0.000048   1.000089
     4  O   -0.000048   0.999911
 Sum of Mulliken charges =   0.00000   4.00000

 Dipole moment (field-independent basis, Debye):
    X=              0.0000    Y=              0.0000    Z=             -0.0000  Tot=              0.0000
 Quadrupole moment (field-independent basis, Debye-Ang):
   XX=            -20.3615   YY=            -20.3615   ZZ=            -20.1523
   XY=              0.0000   XZ=              0.0000   YZ=              0.0000

 Q=-300.1879274\CCSD=-300.1692165\CCSD(T)=-300.219206\RMSD=2.774e-09\PG
 Normal termination of Gaussian 16 at Sun Jan 15 02:49:07 2023.
