 Gaussian 16, Revision A.03,
 Gaussian 16:  ES64L-G16RevA.03 25-Dec-2016

 ---------------------------------------------------------------
 #p ROCCSD(T)/cc-pVTZ Guess=Read SCF=(VeryTight,CDIIS,VShift=10)
 ---------------------------------------------------------------

 ---------
 O2_O2_130
 ---------
 Symbolic Z-matrix:
 Charge =  0 Multiplicity = 5

                         Standard orientation:
 ---------------------------------------------------------------------
 Center     Atomic      Atomic             Coordinates (Angstroms)
 Number     Number       Type             X           Y           Z
 ---------------------------------------------------------------------
      1          8           0        0.000000    0.000000    2.633191
      2          8           0        0.000000    0.000000    3.985571
      3          8           0        0.000000    0.000000   -3.985571
      4          8           0        0.000000    0.000000   -2.633191
 ---------------------------------------------------------------------

 SCF Done:  E(ROHF) =  -299.202861448     A.U. after    3 cycles
 E2 =    -0.1041610979D+01 EUMP2 =    -0.30024447242722D+03
 CCSD(T)
 CCSD(T)= -0.30021923363D+03

 The electronic state is 5-SGG.
 Alpha  occ. eigenvalues --  -20.77262 -20.77262 -20.77225 -20.77225  -1.60066
 Alpha  occ. eigenvalues --   -1.60066  -1.23501  -1.23501  -0.77568  -0.77568
 Alpha  occ. eigenvalues --   -0.77567  -0.77567  -0.72009  -0.72003  -0.57632
 Alpha  occ. eigenvalues --   -0.57632  -0.57632  -0.57632
 Alpha virt. eigenvalues --    0.24816   0.24942   0.67374   0.67835   0.69014
 Alpha virt. eigenvalues --    0.69014   0.69020   0.69020   0.75003   0.75229
 Alpha virt. eigenvalues --    0.79126   0.79126   0.79145   0.79145   0.88524

 Mulliken charges and spin densities:
               1          2
     1  O   -0.000297   0.999466
     2  O    0.000297   1.000534
     3  O    0.000297   1.000534
     4  O   -0.000297   0.999466
 Sum of Mulliken charges =  -0.00000   4.00000

 Dipole moment (field-independent basis, Debye):
    X=              0.0000    Y=              0.0000    Z=              0.0000  Tot=              0.0000
 Quadrupole moment (field-independent basis, Debye-Ang):
   XX=            -20.3615   YY=            -20.3615   ZZ=            -20.1323
   XY=              0.0000   XZ=              0.0000   YZ=              0.0000

 Q=-300.1879721\CCSD=-300.1692406\CCSD(T)=-300.2192336\RMSD=8.586e-09\P
 Normal termination of Gaussian 16 at Sun Jan 15 00:35:07 2023.
