 Gaussian 16, Revision A.03,
 Gaussian 16:  ES64L-G16RevA.03 25-Dec-2016

 ---------------------------------------------------------------
 #p ROCCSD(T)/cc-pVTZ Guess=Read SCF=(VeryTight,CDIIS,VShift=10)
 ---------------------------------------------------------------

 ---------
 O2_O2_238
 ---------
 Symbolic Z-matrix:
 Charge =  0 Multiplicity = 5

                         Standard orientation:
 ---------------------------------------------------------------------
 Center     Atomic      Atomic             Coordinates (Angstroms)
 Number     Number       Type             X           Y           Z
 ---------------------------------------------------------------------
      1          8           0        0.000000    0.000000    4.162318
      2          8           0        0.000000    0.000000    5.514698
      3          8           0        0.000000    0.000000   -5.514698
      4          8           0        0.000000    0.000000   -4.162318
 ---------------------------------------------------------------------

 SCF Done:  E(ROHF) =  -299.202861770     A.U. after    5 cycles
 E2 =    -0.1041560406D+01 EUMP2 =    -0.30024442217510D+03
 CCSD(T)
 CCSD(T)= -0.30021920647D+03

 The electronic state is 5-SGG.
 Alpha  occ. eigenvalues --  -20.77256 -20.77256 -20.77222 -20.77222  -1.60062
 Alpha  occ. eigenvalues --   -1.60062  -1.23497  -1.23497  -0.77564  -0.77564
 Alpha  occ. eigenvalues --   -0.77564  -0.77564  -0.72002  -0.72002  -0.57628
 Alpha  occ. eigenvalues --   -0.57628  -0.57628  -0.57628
 Alpha virt. eigenvalues --    0.24885   0.24885   0.67614   0.67614   0.69021
 Alpha virt. eigenvalues --    0.69021   0.69021   0.69021   0.75118   0.75118
 Alpha virt. eigenvalues --    0.79139   0.79139   0.79139   0.79139   0.88529

 Mulliken charges and spin densities:
               1          2
     1  O   -0.000086   0.999825
     2  O    0.000086   1.000175
     3  O    0.000086   1.000175
     4  O   -0.000086   0.999825
 Sum of Mulliken charges =   0.00000   4.00000

 Dipole moment (field-independent basis, Debye):
    X=              0.0000    Y=             -0.0000    Z=             -0.0000  Tot=              0.0000
 Quadrupole moment (field-independent basis, Debye-Ang):
   XX=            -20.3615   YY=            -20.3615   ZZ=            -20.1479
   XY=              0.0000   XZ=              0.0000   YZ=              0.0000

 Q=-300.1879282\CCSD=-300.1692169\CCSD(T)=-300.2192065\RMSD=1.808e-09\P
 Normal termination of Gaussian 16 at Sun Jan 15 02:35:55 2023.
