 Gaussian 16, Revision A.03,
 Gaussian 16:  ES64L-G16RevA.03 25-Dec-2016

 ---------------------------------------------------------------
 #p ROCCSD(T)/cc-pVTZ Guess=Read SCF=(VeryTight,CDIIS,VShift=10)
 ---------------------------------------------------------------

 ---------
 O2_O2_191
 ---------
 Symbolic Z-matrix:
 Charge =  0 Multiplicity = 5

                         Standard orientation:
 ---------------------------------------------------------------------
 Center     Atomic      Atomic             Coordinates (Angstroms)
 Number     Number       Type             X           Y           Z
 ---------------------------------------------------------------------
      1          8           0        0.000000    0.000000    3.496865
      2          8           0        0.000000    0.000000    4.849245
      3          8           0        0.000000    0.000000   -4.849245
      4          8           0        0.000000    0.000000   -3.496865
 ---------------------------------------------------------------------

 SCF Done:  E(ROHF) =  -299.202861700     A.U. after    5 cycles
 E2 =    -0.1041567987D+01 EUMP2 =    -0.30024442968661D+03
 CCSD(T)
 CCSD(T)= -0.30021921041D+03

 The electronic state is 5-SGG.
 Alpha  occ. eigenvalues --  -20.77257 -20.77257 -20.77223 -20.77223  -1.60063
 Alpha  occ. eigenvalues --   -1.60063  -1.23498  -1.23498  -0.77565  -0.77565
 Alpha  occ. eigenvalues --   -0.77565  -0.77565  -0.72003  -0.72003  -0.57629
 Alpha  occ. eigenvalues --   -0.57629  -0.57629  -0.57629
 Alpha virt. eigenvalues --    0.24883   0.24884   0.67613   0.67613   0.69020
 Alpha virt. eigenvalues --    0.69020   0.69020   0.69020   0.75117   0.75117
 Alpha virt. eigenvalues --    0.79138   0.79138   0.79138   0.79138   0.88528

 Mulliken charges and spin densities:
               1          2
     1  O   -0.000121   0.999771
     2  O    0.000121   1.000229
     3  O    0.000121   1.000229
     4  O   -0.000121   0.999771
 Sum of Mulliken charges =  -0.00000   4.00000

 Dipole moment (field-independent basis, Debye):
    X=              0.0000    Y=             -0.0000    Z=             -0.0000  Tot=              0.0000
 Quadrupole moment (field-independent basis, Debye-Ang):
   XX=            -20.3615   YY=            -20.3615   ZZ=            -20.1454
   XY=              0.0000   XZ=              0.0000   YZ=              0.0000

 Q=-300.1879348\CCSD=-300.1692204\CCSD(T)=-300.2192104\RMSD=7.113e-09\P
 Normal termination of Gaussian 16 at Sun Jan 15 01:42:56 2023.
