 Gaussian 16, Revision A.03,
 Gaussian 16:  ES64L-G16RevA.03 25-Dec-2016

 ---------------------------------------------------------------
 #p ROCCSD(T)/cc-pVTZ Guess=Read SCF=(VeryTight,CDIIS,VShift=10)
 ---------------------------------------------------------------

 ---------
 O2_O2_136
 ---------
 Symbolic Z-matrix:
 Charge =  0 Multiplicity = 5

                         Standard orientation:
 ---------------------------------------------------------------------
 Center     Atomic      Atomic             Coordinates (Angstroms)
 Number     Number       Type             X           Y           Z
 ---------------------------------------------------------------------
      1          8           0        0.000000    0.000000    2.718142
      2          8           0        0.000000    0.000000    4.070523
      3          8           0        0.000000    0.000000   -4.070523
      4          8           0        0.000000    0.000000   -2.718142
 ---------------------------------------------------------------------

 SCF Done:  E(ROHF) =  -299.202861402     A.U. after    3 cycles
 E2 =    -0.1041602488D+01 EUMP2 =    -0.30024446389042D+03
 CCSD(T)
 CCSD(T)= -0.30021922889D+03

 The electronic state is 5-SGG.
 Alpha  occ. eigenvalues --  -20.77261 -20.77261 -20.77224 -20.77224  -1.60066
 Alpha  occ. eigenvalues --   -1.60066  -1.23501  -1.23501  -0.77567  -0.77567
 Alpha  occ. eigenvalues --   -0.77567  -0.77567  -0.72007  -0.72004  -0.57631
 Alpha  occ. eigenvalues --   -0.57631  -0.57631  -0.57631
 Alpha virt. eigenvalues --    0.24843   0.24918   0.67473   0.67743   0.69016
 Alpha virt. eigenvalues --    0.69016   0.69019   0.69019   0.75050   0.75178
 Alpha virt. eigenvalues --    0.79131   0.79131   0.79141   0.79141   0.88525

 Mulliken charges and spin densities:
               1          2
     1  O   -0.000277   0.999495
     2  O    0.000277   1.000505
     3  O    0.000277   1.000505
     4  O   -0.000277   0.999495
 Sum of Mulliken charges =   0.00000   4.00000

 Dipole moment (field-independent basis, Debye):
    X=              0.0000    Y=              0.0000    Z=              0.0000  Tot=              0.0000
 Quadrupole moment (field-independent basis, Debye-Ang):
   XX=            -20.3615   YY=            -20.3615   ZZ=            -20.1336
   XY=              0.0000   XZ=              0.0000   YZ=              0.0000

 Q=-300.1879646\CCSD=-300.1692364\CCSD(T)=-300.2192289\RMSD=3.466e-09\P
 Normal termination of Gaussian 16 at Sun Jan 15 00:41:48 2023.
