 Gaussian 16, Revision A.03,
 Gaussian 16:  ES64L-G16RevA.03 25-Dec-2016

 ---------------------------------------------------------------
 #p ROCCSD(T)/cc-pVTZ Guess=Read SCF=(VeryTight,CDIIS,VShift=10)
 ---------------------------------------------------------------

 --------
 O2_O2_76
 --------
 Symbolic Z-matrix:
 Charge =  0 Multiplicity = 5

                         Standard orientation:
 ---------------------------------------------------------------------
 Center     Atomic      Atomic             Coordinates (Angstroms)
 Number     Number       Type             X           Y           Z
 ---------------------------------------------------------------------
      1          8           0        0.000000    0.000000    1.868627
      2          8           0        0.000000    0.000000    3.221008
      3          8           0        0.000000    0.000000   -3.221008
      4          8           0        0.000000    0.000000   -1.868627
 ---------------------------------------------------------------------

 SCF Done:  E(ROHF) =  -299.202892842     A.U. after   12 cycles
 E2 =    -0.1041939018D+01 EUMP2 =    -0.30024483186047D+03
 CCSD(T)
 CCSD(T)= -0.30021946620D+03

 The electronic state is 5-SGG.
 Alpha  occ. eigenvalues --  -20.77286 -20.77286 -20.77228 -20.77228  -1.60082
 Alpha  occ. eigenvalues --   -1.60075  -1.23540  -1.23487  -0.77589  -0.77589
 Alpha  occ. eigenvalues --   -0.77570  -0.77570  -0.72144  -0.71891  -0.57668
 Alpha  occ. eigenvalues --   -0.57668  -0.57620  -0.57620
 Alpha virt. eigenvalues --    0.23029   0.26349   0.60071   0.68669   0.68669
 Alpha virt. eigenvalues --    0.69298   0.69298   0.70507   0.72893   0.78265
 Alpha virt. eigenvalues --    0.78265   0.80058   0.80058   0.85228   0.88480

 Mulliken charges and spin densities:
               1          2
     1  O   -0.001081   0.998461
     2  O    0.001081   1.001539
     3  O    0.001081   1.001539
     4  O   -0.001081   0.998461
 Sum of Mulliken charges =  -0.00000   4.00000

 Dipole moment (field-independent basis, Debye):
    X=              0.0000    Y=             -0.0000    Z=              0.0000  Tot=              0.0000
 Quadrupole moment (field-independent basis, Debye-Ang):
   XX=            -20.3613   YY=            -20.3613   ZZ=            -20.0899
   XY=              0.0000   XZ=              0.0000   YZ=              0.0000

 =-300.1882786\CCSD=-300.1694443\CCSD(T)=-300.2194662\RMSD=3.183e-09\PG
 Normal termination of Gaussian 16 at Sat Jan 14 23:35:36 2023.
