 Gaussian 16, Revision A.03,
 Gaussian 16:  ES64L-G16RevA.03 25-Dec-2016

 ---------------------------------------------------------------
 #p ROCCSD(T)/cc-pVTZ Guess=Read SCF=(VeryTight,CDIIS,VShift=10)
 ---------------------------------------------------------------

 ---------
 O2_O2_165
 ---------
 Symbolic Z-matrix:
 Charge =  0 Multiplicity = 5

                         Standard orientation:
 ---------------------------------------------------------------------
 Center     Atomic      Atomic             Coordinates (Angstroms)
 Number     Number       Type             X           Y           Z
 ---------------------------------------------------------------------
      1          8           0        0.000000    0.000000    3.128742
      2          8           0        0.000000    0.000000    4.481122
      3          8           0        0.000000    0.000000   -4.481122
      4          8           0        0.000000    0.000000   -3.128742
 ---------------------------------------------------------------------

 SCF Done:  E(ROHF) =  -299.202861598     A.U. after    6 cycles
 E2 =    -0.1041577976D+01 EUMP2 =    -0.30024443957368D+03
 CCSD(T)
 CCSD(T)= -0.30021921568D+03

 The electronic state is 5-SGG.
 Alpha  occ. eigenvalues --  -20.77259 -20.77259 -20.77223 -20.77223  -1.60064
 Alpha  occ. eigenvalues --   -1.60064  -1.23499  -1.23499  -0.77565  -0.77565
 Alpha  occ. eigenvalues --   -0.77565  -0.77565  -0.72004  -0.72004  -0.57630
 Alpha  occ. eigenvalues --   -0.57630  -0.57630  -0.57630
 Alpha virt. eigenvalues --    0.24880   0.24884   0.67605   0.67618   0.69019
 Alpha virt. eigenvalues --    0.69019   0.69019   0.69019   0.75113   0.75118
 Alpha virt. eigenvalues --    0.79137   0.79137   0.79138   0.79138   0.88527

 Mulliken charges and spin densities:
               1          2
     1  O   -0.000183   0.999653
     2  O    0.000183   1.000347
     3  O    0.000183   1.000347
     4  O   -0.000183   0.999653
 Sum of Mulliken charges =  -0.00000   4.00000

 Dipole moment (field-independent basis, Debye):
    X=              0.0000    Y=              0.0000    Z=              0.0000  Tot=              0.0000
 Quadrupole moment (field-independent basis, Debye-Ang):
   XX=            -20.3615   YY=            -20.3615   ZZ=            -20.1402
   XY=              0.0000   XZ=              0.0000   YZ=              0.0000

 Q=-300.1879434\CCSD=-300.169225\CCSD(T)=-300.2192157\RMSD=9.039e-09\PG
 Normal termination of Gaussian 16 at Sun Jan 15 01:14:22 2023.
