 Gaussian 16, Revision A.03,
 Gaussian 16:  ES64L-G16RevA.03 25-Dec-2016

 ---------------------------------------------------------------
 #p ROCCSD(T)/cc-pVTZ Guess=Read SCF=(VeryTight,CDIIS,VShift=10)
 ---------------------------------------------------------------

 ---------
 O2_O2_142
 ---------
 Symbolic Z-matrix:
 Charge =  0 Multiplicity = 5

                         Standard orientation:
 ---------------------------------------------------------------------
 Center     Atomic      Atomic             Coordinates (Angstroms)
 Number     Number       Type             X           Y           Z
 ---------------------------------------------------------------------
      1          8           0        0.000000    0.000000    2.803094
      2          8           0        0.000000    0.000000    4.155474
      3          8           0        0.000000    0.000000   -4.155474
      4          8           0        0.000000    0.000000   -2.803094
 ---------------------------------------------------------------------

 SCF Done:  E(ROHF) =  -299.202861429     A.U. after    3 cycles
 E2 =    -0.1041595502D+01 EUMP2 =    -0.30024445693137D+03
 CCSD(T)
 CCSD(T)= -0.30021922507D+03

 The electronic state is 5-SGG.
 Alpha  occ. eigenvalues --  -20.77261 -20.77261 -20.77224 -20.77224  -1.60066
 Alpha  occ. eigenvalues --   -1.60066  -1.23500  -1.23500  -0.77567  -0.77567
 Alpha  occ. eigenvalues --   -0.77567  -0.77567  -0.72006  -0.72004  -0.57631
 Alpha  occ. eigenvalues --   -0.57631  -0.57631  -0.57631
 Alpha virt. eigenvalues --    0.24859   0.24902   0.67533   0.67686   0.69017
 Alpha virt. eigenvalues --    0.69017   0.69019   0.69019   0.75079   0.75149
 Alpha virt. eigenvalues --    0.79134   0.79134   0.79139   0.79139   0.88525

 Mulliken charges and spin densities:
               1          2
     1  O   -0.000255   0.999529
     2  O    0.000255   1.000471
     3  O    0.000255   1.000471
     4  O   -0.000255   0.999529
 Sum of Mulliken charges =   0.00000   4.00000

 Dipole moment (field-independent basis, Debye):
    X=              0.0000    Y=             -0.0000    Z=             -0.0000  Tot=              0.0000
 Quadrupole moment (field-independent basis, Debye-Ang):
   XX=            -20.3615   YY=            -20.3615   ZZ=            -20.1350
   XY=              0.0000   XZ=              0.0000   YZ=              0.0000

 Q=-300.1879586\CCSD=-300.1692331\CCSD(T)=-300.2192251\RMSD=9.228e-09\P
 Normal termination of Gaussian 16 at Sun Jan 15 00:48:39 2023.
