 Gaussian 16, Revision A.03,
 Gaussian 16:  ES64L-G16RevA.03 25-Dec-2016

 ---------------------------------------------------------------
 #p ROCCSD(T)/cc-pVTZ Guess=Read SCF=(VeryTight,CDIIS,VShift=10)
 ---------------------------------------------------------------

 ---------
 O2_O2_104
 ---------
 Symbolic Z-matrix:
 Charge =  0 Multiplicity = 5

                         Standard orientation:
 ---------------------------------------------------------------------
 Center     Atomic      Atomic             Coordinates (Angstroms)
 Number     Number       Type             X           Y           Z
 ---------------------------------------------------------------------
      1          8           0        0.000000    0.000000    2.265068
      2          8           0        0.000000    0.000000    3.617448
      3          8           0        0.000000    0.000000   -3.617448
      4          8           0        0.000000    0.000000   -2.265068
 ---------------------------------------------------------------------

 SCF Done:  E(ROHF) =  -299.202867841     A.U. after    4 cycles
 E2 =    -0.1041679327D+01 EUMP2 =    -0.30024454716866D+03
 CCSD(T)
 CCSD(T)= -0.30021927884D+03

 The electronic state is 5-SGG.
 Alpha  occ. eigenvalues --  -20.77268 -20.77268 -20.77226 -20.77226  -1.60070
 Alpha  occ. eigenvalues --   -1.60069  -1.23507  -1.23502  -0.77572  -0.77572
 Alpha  occ. eigenvalues --   -0.77570  -0.77570  -0.72030  -0.71989  -0.57638
 Alpha  occ. eigenvalues --   -0.57638  -0.57632  -0.57632
 Alpha virt. eigenvalues --    0.24428   0.25284   0.65793   0.68976   0.68976
 Alpha virt. eigenvalues --    0.69024   0.69052   0.69052   0.74321   0.76339
 Alpha virt. eigenvalues --    0.79024   0.79024   0.79242   0.79242   0.88522

 Mulliken charges and spin densities:
               1          2
     1  O   -0.000496   0.999176
     2  O    0.000496   1.000824
     3  O    0.000496   1.000824
     4  O   -0.000496   0.999176
 Sum of Mulliken charges =  -0.00000   4.00000

 Dipole moment (field-independent basis, Debye):
    X=              0.0000    Y=              0.0000    Z=             -0.0000  Tot=              0.0000
 Quadrupole moment (field-independent basis, Debye-Ang):
   XX=            -20.3615   YY=            -20.3615   ZZ=            -20.1193
   XY=              0.0000   XZ=              0.0000   YZ=              0.0000

 Q=-300.1880371\CCSD=-300.1692805\CCSD(T)=-300.2192788\RMSD=1.000e-08\P
 Normal termination of Gaussian 16 at Sun Jan 15 00:07:03 2023.
