 Gaussian 16, Revision A.03,
 Gaussian 16:  ES64L-G16RevA.03 25-Dec-2016

 ---------------------------------------------------------------
 #p ROCCSD(T)/cc-pVTZ Guess=Read SCF=(VeryTight,CDIIS,VShift=10)
 ---------------------------------------------------------------

 ---------
 O2_O2_129
 ---------
 Symbolic Z-matrix:
 Charge =  0 Multiplicity = 5

                         Standard orientation:
 ---------------------------------------------------------------------
 Center     Atomic      Atomic             Coordinates (Angstroms)
 Number     Number       Type             X           Y           Z
 ---------------------------------------------------------------------
      1          8           0        0.000000    0.000000    2.619033
      2          8           0        0.000000    0.000000    3.971413
      3          8           0        0.000000    0.000000   -3.971413
      4          8           0        0.000000    0.000000   -2.619033
 ---------------------------------------------------------------------

 SCF Done:  E(ROHF) =  -299.202861470     A.U. after    4 cycles
 E2 =    -0.1041612567D+01 EUMP2 =    -0.30024447403677D+03
 CCSD(T)
 CCSD(T)= -0.30021923453D+03

 The electronic state is 5-SGG.
 Alpha  occ. eigenvalues --  -20.77262 -20.77262 -20.77225 -20.77225  -1.60067
 Alpha  occ. eigenvalues --   -1.60067  -1.23502  -1.23501  -0.77568  -0.77568
 Alpha  occ. eigenvalues --   -0.77568  -0.77568  -0.72009  -0.72003  -0.57632
 Alpha  occ. eigenvalues --   -0.57632  -0.57632  -0.57632
 Alpha virt. eigenvalues --    0.24810   0.24948   0.67352   0.67855   0.69013
 Alpha virt. eigenvalues --    0.69013   0.69021   0.69021   0.74992   0.75241
 Alpha virt. eigenvalues --    0.79125   0.79125   0.79146   0.79146   0.88524

 Mulliken charges and spin densities:
               1          2
     1  O   -0.000301   0.999462
     2  O    0.000301   1.000538
     3  O    0.000301   1.000538
     4  O   -0.000301   0.999462
 Sum of Mulliken charges =   0.00000   4.00000

 Dipole moment (field-independent basis, Debye):
    X=              0.0000    Y=              0.0000    Z=             -0.0000  Tot=              0.0000
 Quadrupole moment (field-independent basis, Debye-Ang):
   XX=            -20.3615   YY=            -20.3615   ZZ=            -20.1321
   XY=              0.0000   XZ=              0.0000   YZ=              0.0000

 -300.1879735\CCSD=-300.1692413\CCSD(T)=-300.2192345\RMSD=3.424e-09\PG=
 Normal termination of Gaussian 16 at Sun Jan 15 00:34:03 2023.
