 Gaussian 16, Revision A.03,
 Gaussian 16:  ES64L-G16RevA.03 25-Dec-2016

 ---------------------------------------------------------------
 #p ROCCSD(T)/cc-pVTZ Guess=Read SCF=(VeryTight,CDIIS,VShift=10)
 ---------------------------------------------------------------

 --------
 O2_O2_67
 --------
 Symbolic Z-matrix:
 Charge =  0 Multiplicity = 5

                         Standard orientation:
 ---------------------------------------------------------------------
 Center     Atomic      Atomic             Coordinates (Angstroms)
 Number     Number       Type             X           Y           Z
 ---------------------------------------------------------------------
      1          8           0        0.000000    0.000000    1.741201
      2          8           0        0.000000    0.000000    3.093581
      3          8           0        0.000000    0.000000   -3.093581
      4          8           0        0.000000    0.000000   -1.741201
 ---------------------------------------------------------------------

 SCF Done:  E(ROHF) =  -299.202867624     A.U. after   12 cycles
 E2 =    -0.1042128482D+01 EUMP2 =    -0.30024499610599D+03
 CCSD(T)
 CCSD(T)= -0.30021956884D+03

 The electronic state is 5-SGG.
 Alpha  occ. eigenvalues --  -20.77298 -20.77298 -20.77221 -20.77221  -1.60088
 Alpha  occ. eigenvalues --   -1.60073  -1.23571  -1.23463  -0.77601  -0.77601
 Alpha  occ. eigenvalues --   -0.77564  -0.77564  -0.72240  -0.71801  -0.57691
 Alpha  occ. eigenvalues --   -0.57691  -0.57602  -0.57602
 Alpha virt. eigenvalues --    0.22516   0.26832   0.58674   0.68387   0.68387
 Alpha virt. eigenvalues --    0.69480   0.69480   0.70419   0.72531   0.77685
 Alpha virt. eigenvalues --    0.77685   0.80781   0.80781   0.88411   0.88568

 Mulliken charges and spin densities:
               1          2
     1  O   -0.001552   0.997728
     2  O    0.001552   1.002272
     3  O    0.001552   1.002272
     4  O   -0.001552   0.997728
 Sum of Mulliken charges =  -0.00000   4.00000

 Dipole moment (field-independent basis, Debye):
    X=              0.0000    Y=              0.0000    Z=              0.0000  Tot=              0.0000
 Quadrupole moment (field-independent basis, Debye-Ang):
   XX=            -20.3611   YY=            -20.3611   ZZ=            -20.0728
   XY=              0.0000   XZ=              0.0000   YZ=              0.0000

 =-300.1884142\CCSD=-300.169528\CCSD(T)=-300.2195688\RMSD=5.364e-09\PG=
 Normal termination of Gaussian 16 at Sat Jan 14 23:25:39 2023.
