 Gaussian 16, Revision A.03,
 Gaussian 16:  ES64L-G16RevA.03 25-Dec-2016

 ---------------------------------------------------------------
 #p ROCCSD(T)/cc-pVTZ Guess=Read SCF=(VeryTight,CDIIS,VShift=10)
 ---------------------------------------------------------------

 ---------
 O2_O2_101
 ---------
 Symbolic Z-matrix:
 Charge =  0 Multiplicity = 5

                         Standard orientation:
 ---------------------------------------------------------------------
 Center     Atomic      Atomic             Coordinates (Angstroms)
 Number     Number       Type             X           Y           Z
 ---------------------------------------------------------------------
      1          8           0        0.000000    0.000000    2.222593
      2          8           0        0.000000    0.000000    3.574973
      3          8           0        0.000000    0.000000   -3.574973
      4          8           0        0.000000    0.000000   -2.222593
 ---------------------------------------------------------------------

 SCF Done:  E(ROHF) =  -299.202870227     A.U. after    5 cycles
 E2 =    -0.1041693166D+01 EUMP2 =    -0.30024456339337D+03
 CCSD(T)
 CCSD(T)= -0.30021928931D+03

 The electronic state is 5-SGG.
 Alpha  occ. eigenvalues --  -20.77269 -20.77269 -20.77226 -20.77226  -1.60071
 Alpha  occ. eigenvalues --   -1.60070  -1.23509  -1.23502  -0.77573  -0.77573
 Alpha  occ. eigenvalues --   -0.77570  -0.77570  -0.72036  -0.71985  -0.57640
 Alpha  occ. eigenvalues --   -0.57640  -0.57632  -0.57632
 Alpha virt. eigenvalues --    0.24334   0.25360   0.65388   0.68965   0.68965
 Alpha virt. eigenvalues --    0.69062   0.69062   0.69250   0.74178   0.76699
 Alpha virt. eigenvalues --    0.78993   0.78993   0.79273   0.79273   0.88520

 Mulliken charges and spin densities:
               1          2
     1  O   -0.000521   0.999157
     2  O    0.000521   1.000843
     3  O    0.000521   1.000843
     4  O   -0.000521   0.999157
 Sum of Mulliken charges =   0.00000   4.00000

 Dipole moment (field-independent basis, Debye):
    X=              0.0000    Y=             -0.0000    Z=             -0.0000  Tot=              0.0000
 Quadrupole moment (field-independent basis, Debye-Ang):
   XX=            -20.3614   YY=            -20.3614   ZZ=            -20.1178
   XY=              0.0000   XZ=              0.0000   YZ=              0.0000

 Q=-300.1880512\CCSD=-300.1692899\CCSD(T)=-300.2192893\RMSD=4.878e-09\P
 Normal termination of Gaussian 16 at Sun Jan 15 00:03:42 2023.
