 Gaussian 16, Revision A.03,
 Gaussian 16:  ES64L-G16RevA.03 25-Dec-2016

 ---------------------------------------------------------------
 #p ROCCSD(T)/cc-pVTZ Guess=Read SCF=(VeryTight,CDIIS,VShift=10)
 ---------------------------------------------------------------

 --------
 O2_O2_84
 --------
 Symbolic Z-matrix:
 Charge =  0 Multiplicity = 5

                         Standard orientation:
 ---------------------------------------------------------------------
 Center     Atomic      Atomic             Coordinates (Angstroms)
 Number     Number       Type             X           Y           Z
 ---------------------------------------------------------------------
      1          8           0        0.000000    0.000000    1.981897
      2          8           0        0.000000    0.000000    3.334277
      3          8           0        0.000000    0.000000   -3.334277
      4          8           0        0.000000    0.000000   -1.981897
 ---------------------------------------------------------------------

 SCF Done:  E(ROHF) =  -299.202890192     A.U. after    8 cycles
 E2 =    -0.1041825417D+01 EUMP2 =    -0.30024471560884D+03
 CCSD(T)
 CCSD(T)= -0.30021939007D+03

 The electronic state is 5-SGG.
 Alpha  occ. eigenvalues --  -20.77279 -20.77279 -20.77228 -20.77228  -1.60077
 Alpha  occ. eigenvalues --   -1.60073  -1.23525  -1.23496  -0.77582  -0.77582
 Alpha  occ. eigenvalues --   -0.77571  -0.77571  -0.72092  -0.71938  -0.57655
 Alpha  occ. eigenvalues --   -0.57655  -0.57628  -0.57628
 Alpha virt. eigenvalues --    0.23526   0.25970   0.61936   0.68820   0.68820
 Alpha virt. eigenvalues --    0.69184   0.69184   0.70332   0.73274   0.78618
 Alpha virt. eigenvalues --    0.78618   0.79662   0.79662   0.81163   0.88498

 Mulliken charges and spin densities:
               1          2
     1  O   -0.000838   0.998757
     2  O    0.000838   1.001243
     3  O    0.000838   1.001243
     4  O   -0.000838   0.998757
 Sum of Mulliken charges =  -0.00000   4.00000

 Dipole moment (field-independent basis, Debye):
    X=              0.0000    Y=             -0.0000    Z=              0.0000  Tot=              0.0000
 Quadrupole moment (field-independent basis, Debye-Ang):
   XX=            -20.3614   YY=            -20.3614   ZZ=            -20.0998
   XY=              0.0000   XZ=              0.0000   YZ=              0.0000

 =-300.1881812\CCSD=-300.169379\CCSD(T)=-300.2193901\RMSD=1.604e-09\PG=
 Normal termination of Gaussian 16 at Sat Jan 14 23:44:30 2023.
