 Gaussian 16, Revision A.03,
 Gaussian 16:  ES64L-G16RevA.03 25-Dec-2016

 ---------------------------------------------------------------
 #p ROCCSD(T)/cc-pVTZ Guess=Read SCF=(VeryTight,CDIIS,VShift=10)
 ---------------------------------------------------------------

 --------
 O2_O2_42
 --------
 Symbolic Z-matrix:
 Charge =  0 Multiplicity = 5

                         Standard orientation:
 ---------------------------------------------------------------------
 Center     Atomic      Atomic             Coordinates (Angstroms)
 Number     Number       Type             X           Y           Z
 ---------------------------------------------------------------------
      1          8           0        0.000000    0.000000    1.387236
      2          8           0        0.000000    0.000000    2.739616
      3          8           0        0.000000    0.000000   -2.739616
      4          8           0        0.000000    0.000000   -1.387236
 ---------------------------------------------------------------------

 SCF Done:  E(ROHF) =  -299.201838351     A.U. after   14 cycles
 E2 =    -0.1043294031D+01 EUMP2 =    -0.30024513238238D+03
 CCSD(T)
 CCSD(T)= -0.30021938112D+03

 The electronic state is 5-SGG.
 Alpha  occ. eigenvalues --  -20.77408 -20.77408 -20.77032 -20.77031  -1.60127
 Alpha  occ. eigenvalues --   -1.60003  -1.23881  -1.23162  -0.77671  -0.77671
 Alpha  occ. eigenvalues --   -0.77456  -0.77456  -0.73012  -0.71029  -0.57854
 Alpha  occ. eigenvalues --   -0.57854  -0.57393  -0.57393
 Alpha virt. eigenvalues --    0.22223   0.28618   0.64417   0.66667   0.66667
 Alpha virt. eigenvalues --    0.68873   0.70134   0.70134   0.71546   0.75480
 Alpha virt. eigenvalues --    0.75480   0.85090   0.85090   0.88160   0.88620

 Mulliken charges and spin densities:
               1          2
     1  O   -0.004036   0.987828
     2  O    0.004036   1.012172
     3  O    0.004036   1.012172
     4  O   -0.004036   0.987828
 Sum of Mulliken charges =  -0.00000   4.00000

 Dipole moment (field-independent basis, Debye):
    X=              0.0000    Y=              0.0000    Z=             -0.0000  Tot=              0.0000
 Quadrupole moment (field-independent basis, Debye-Ang):
   XX=            -20.3599   YY=            -20.3599   ZZ=            -19.9149
   XY=              0.0000   XZ=              0.0000   YZ=              0.0000

 =-300.1884157\CCSD=-300.1692107\CCSD(T)=-300.2193811\RMSD=7.035e-09\PG
 Normal termination of Gaussian 16 at Sat Jan 14 22:55:25 2023.
