 Gaussian 16, Revision A.03,
 Gaussian 16:  ES64L-G16RevA.03 25-Dec-2016

 ---------------------------------------------------------------
 #p ROCCSD(T)/cc-pVTZ Guess=Read SCF=(VeryTight,CDIIS,VShift=10)
 ---------------------------------------------------------------

 --------
 O2_O2_24
 --------
 Symbolic Z-matrix:
 Charge =  0 Multiplicity = 5

                         Standard orientation:
 ---------------------------------------------------------------------
 Center     Atomic      Atomic             Coordinates (Angstroms)
 Number     Number       Type             X           Y           Z
 ---------------------------------------------------------------------
      1          8           0        0.000000    0.000000    1.132382
      2          8           0        0.000000    0.000000    2.484762
      3          8           0        0.000000    0.000000   -2.484762
      4          8           0        0.000000    0.000000   -1.132382
 ---------------------------------------------------------------------

 SCF Done:  E(ROHF) =  -299.193807846     A.U. after   15 cycles
 E2 =    -0.1044507585D+01 EUMP2 =    -0.30023831543148D+03
 CCSD(T)
 CCSD(T)= -0.30021314874D+03

 The electronic state is 5-SGG.
 Alpha  occ. eigenvalues --  -20.77941 -20.77941 -20.75903 -20.75903  -1.60219
 Alpha  occ. eigenvalues --   -1.59691  -1.24857  -1.22136  -0.77820  -0.77820
 Alpha  occ. eigenvalues --   -0.77143  -0.77143  -0.74691  -0.69036  -0.58177
 Alpha  occ. eigenvalues --   -0.58177  -0.56624  -0.56624
 Alpha virt. eigenvalues --    0.22641   0.31075   0.65944   0.65944   0.67050
 Alpha virt. eigenvalues --    0.69861   0.70329   0.70329   0.74470   0.74470
 Alpha virt. eigenvalues --    0.80179   0.87778   0.88841   0.89996   0.89996

 Mulliken charges and spin densities:
               1          2
     1  O   -0.016568   0.932936
     2  O    0.016568   1.067064
     3  O    0.016568   1.067064
     4  O   -0.016568   0.932936
 Sum of Mulliken charges =  -0.00000   4.00000

 Dipole moment (field-independent basis, Debye):
    X=              0.0000    Y=             -0.0000    Z=             -0.0000  Tot=              0.0000
 Quadrupole moment (field-independent basis, Debye-Ang):
   XX=            -20.3522   YY=            -20.3522   ZZ=            -19.1642
   XY=              0.0000   XZ=              0.0000   YZ=              0.0000

 =-300.1824535\CCSD=-300.1627\CCSD(T)=-300.2131487\RMSD=1.143e-09\PG=D*
 Normal termination of Gaussian 16 at Sat Jan 14 22:34:40 2023.
