 Gaussian 16, Revision A.03,
 Gaussian 16:  ES64L-G16RevA.03 25-Dec-2016

 ---------------------------------------------------------------
 #p ROCCSD(T)/cc-pVTZ Guess=Read SCF=(VeryTight,CDIIS,VShift=10)
 ---------------------------------------------------------------

 ---------
 O2_O2_107
 ---------
 Symbolic Z-matrix:
 Charge =  0 Multiplicity = 5

                         Standard orientation:
 ---------------------------------------------------------------------
 Center     Atomic      Atomic             Coordinates (Angstroms)
 Number     Number       Type             X           Y           Z
 ---------------------------------------------------------------------
      1          8           0        0.000000    0.000000    2.307544
      2          8           0        0.000000    0.000000    3.659924
      3          8           0        0.000000    0.000000   -3.659924
      4          8           0        0.000000    0.000000   -2.307544
 ---------------------------------------------------------------------

 SCF Done:  E(ROHF) =  -299.202865955     A.U. after    4 cycles
 E2 =    -0.1041667273D+01 EUMP2 =    -0.30024453322755D+03
 CCSD(T)
 CCSD(T)= -0.30021926997D+03

 The electronic state is 5-SGG.
 Alpha  occ. eigenvalues --  -20.77267 -20.77267 -20.77225 -20.77225  -1.60069
 Alpha  occ. eigenvalues --   -1.60069  -1.23506  -1.23502  -0.77571  -0.77571
 Alpha  occ. eigenvalues --   -0.77569  -0.77569  -0.72026  -0.71993  -0.57637
 Alpha  occ. eigenvalues --   -0.57637  -0.57632  -0.57632
 Alpha virt. eigenvalues --    0.24508   0.25216   0.66136   0.68810   0.68986
 Alpha virt. eigenvalues --    0.68986   0.69044   0.69044   0.74452   0.76057
 Alpha virt. eigenvalues --    0.79050   0.79050   0.79217   0.79217   0.88523

 Mulliken charges and spin densities:
               1          2
     1  O   -0.000471   0.999201
     2  O    0.000471   1.000799
     3  O    0.000471   1.000799
     4  O   -0.000471   0.999201
 Sum of Mulliken charges =  -0.00000   4.00000

 Dipole moment (field-independent basis, Debye):
    X=              0.0000    Y=              0.0000    Z=              0.0000  Tot=              0.0000
 Quadrupole moment (field-independent basis, Debye-Ang):
   XX=            -20.3615   YY=            -20.3615   ZZ=            -20.1208
   XY=              0.0000   XZ=              0.0000   YZ=              0.0000

 -300.188025\CCSD=-300.1692726\CCSD(T)=-300.21927\RMSD=4.377e-09\PG=D*H
 Normal termination of Gaussian 16 at Sun Jan 15 00:10:13 2023.
