 Gaussian 16, Revision A.03,
 Gaussian 16:  ES64L-G16RevA.03 25-Dec-2016

 ---------------------------------------------------------------
 #p ROCCSD(T)/cc-pVTZ Guess=Read SCF=(VeryTight,CDIIS,VShift=10)
 ---------------------------------------------------------------

 --------
 O2_O2_50
 --------
 Symbolic Z-matrix:
 Charge =  0 Multiplicity = 5

                         Standard orientation:
 ---------------------------------------------------------------------
 Center     Atomic      Atomic             Coordinates (Angstroms)
 Number     Number       Type             X           Y           Z
 ---------------------------------------------------------------------
      1          8           0        0.000000    0.000000    1.500504
      2          8           0        0.000000    0.000000    2.852885
      3          8           0        0.000000    0.000000   -2.852885
      4          8           0        0.000000    0.000000   -1.500504
 ---------------------------------------------------------------------

 SCF Done:  E(ROHF) =  -299.202508982     A.U. after   12 cycles
 E2 =    -0.1042773774D+01 EUMP2 =    -0.30024528275647D+03
 CCSD(T)
 CCSD(T)= -0.30021966777D+03

 The electronic state is 5-SGG.
 Alpha  occ. eigenvalues --  -20.77347 -20.77347 -20.77149 -20.77149  -1.60109
 Alpha  occ. eigenvalues --   -1.60045  -1.23719  -1.23324  -0.77639  -0.77639
 Alpha  occ. eigenvalues --   -0.77515  -0.77515  -0.72641  -0.71409  -0.57777
 Alpha  occ. eigenvalues --   -0.57777  -0.57504  -0.57504
 Alpha virt. eigenvalues --    0.22133   0.27941   0.60662   0.67356   0.67356
 Alpha virt. eigenvalues --    0.69542   0.69931   0.69931   0.71919   0.76182
 Alpha virt. eigenvalues --    0.76182   0.83305   0.83305   0.88273   0.88603

 Mulliken charges and spin densities:
               1          2
     1  O   -0.002897   0.993658
     2  O    0.002897   1.006342
     3  O    0.002897   1.006342
     4  O   -0.002897   0.993658
 Sum of Mulliken charges =  -0.00000   4.00000

 Dipole moment (field-independent basis, Debye):
    X=              0.0000    Y=              0.0000    Z=              0.0000  Tot=              0.0000
 Quadrupole moment (field-independent basis, Debye-Ang):
   XX=            -20.3605   YY=            -20.3605   ZZ=            -20.0037
   XY=              0.0000   XZ=              0.0000   YZ=              0.0000

 300.1886187\CCSD=-300.1695579\CCSD(T)=-300.2196678\RMSD=4.041e-09\PG=D
 Normal termination of Gaussian 16 at Sat Jan 14 23:05:58 2023.
