 Gaussian 16, Revision A.03,
 Gaussian 16:  ES64L-G16RevA.03 25-Dec-2016

 ---------------------------------------------------------------
 #p ROCCSD(T)/cc-pVTZ Guess=Read SCF=(VeryTight,CDIIS,VShift=10)
 ---------------------------------------------------------------

 -------
 O2_O2_3
 -------
 Symbolic Z-matrix:
 Charge =  0 Multiplicity = 5

                         Standard orientation:
 ---------------------------------------------------------------------
 Center     Atomic      Atomic             Coordinates (Angstroms)
 Number     Number       Type             X           Y           Z
 ---------------------------------------------------------------------
      1          8           0        0.000000    0.000000    0.835051
      2          8           0        0.000000    0.000000    2.187431
      3          8           0        0.000000    0.000000   -2.187431
      4          8           0        0.000000    0.000000   -0.835051
 ---------------------------------------------------------------------

 SCF Done:  E(ROHF) =  -299.113000564     A.U. after   11 cycles
 E2 =    -0.1017680617D+01 EUMP2 =    -0.30013068118084D+03
 CCSD(T)
 CCSD(T)= -0.30013646377D+03

 The electronic state is 5-SGG.
 Alpha  occ. eigenvalues --  -20.79437 -20.79437 -20.70240 -20.70239  -1.60948
 Alpha  occ. eigenvalues --   -1.58642  -1.29717  -1.17319  -0.79320  -0.78884
 Alpha  occ. eigenvalues --   -0.78884  -0.77121  -0.77121  -0.60787  -0.59124
 Alpha  occ. eigenvalues --   -0.59124  -0.51608  -0.51608
 Alpha virt. eigenvalues --    0.22759   0.39944   0.64417   0.66083   0.68378
 Alpha virt. eigenvalues --    0.68378   0.69833   0.69833   0.76780   0.76780
 Alpha virt. eigenvalues --    0.86802   0.86828   0.95901   0.95901   1.02708

 Mulliken charges and spin densities:
               1          2
     1  O   -0.083462   0.670177
     2  O    0.083462   1.329823
     3  O    0.083462   1.329823
     4  O   -0.083462   0.670177
 Sum of Mulliken charges =   0.00000   4.00000

 Dipole moment (field-independent basis, Debye):
    X=              0.0000    Y=             -0.0000    Z=              0.0000  Tot=              0.0000
 Quadrupole moment (field-independent basis, Debye-Ang):
   XX=            -20.2237   YY=            -20.2237   ZZ=            -16.7631
   XY=              0.0000   XZ=             -0.0000   YZ=              0.0000

 -300.1016904\CCSD=-300.0854324\CCSD(T)=-300.1364638\RMSD=1.773e-09\PG=
 Normal termination of Gaussian 16 at Sat Jan 14 22:10:26 2023.
