 Gaussian 16, Revision A.03,
 Gaussian 16:  ES64L-G16RevA.03 25-Dec-2016

 ---------------------------------------------------------------
 #p ROCCSD(T)/cc-pVTZ Guess=Read SCF=(VeryTight,CDIIS,VShift=10)
 ---------------------------------------------------------------

 ---------
 O2_O2_146
 ---------
 Symbolic Z-matrix:
 Charge =  0 Multiplicity = 5

                         Standard orientation:
 ---------------------------------------------------------------------
 Center     Atomic      Atomic             Coordinates (Angstroms)
 Number     Number       Type             X           Y           Z
 ---------------------------------------------------------------------
      1          8           0        0.000000    0.000000    2.859729
      2          8           0        0.000000    0.000000    4.212109
      3          8           0        0.000000    0.000000   -4.212109
      4          8           0        0.000000    0.000000   -2.859729
 ---------------------------------------------------------------------

 SCF Done:  E(ROHF) =  -299.202861460     A.U. after    3 cycles
 E2 =    -0.1041591531D+01 EUMP2 =    -0.30024445299044D+03
 CCSD(T)
 CCSD(T)= -0.30021922292D+03

 The electronic state is 5-SGG.
 Alpha  occ. eigenvalues --  -20.77260 -20.77260 -20.77224 -20.77224  -1.60065
 Alpha  occ. eigenvalues --   -1.60065  -1.23500  -1.23500  -0.77566  -0.77566
 Alpha  occ. eigenvalues --   -0.77566  -0.77566  -0.72005  -0.72004  -0.57631
 Alpha  occ. eigenvalues --   -0.57631  -0.57631  -0.57631
 Alpha virt. eigenvalues --    0.24866   0.24896   0.67558   0.67662   0.69018
 Alpha virt. eigenvalues --    0.69018   0.69019   0.69019   0.75091   0.75138
 Alpha virt. eigenvalues --    0.79135   0.79135   0.79138   0.79138   0.88526

 Mulliken charges and spin densities:
               1          2
     1  O   -0.000236   0.999564
     2  O    0.000236   1.000436
     3  O    0.000236   1.000436
     4  O   -0.000236   0.999564
 Sum of Mulliken charges =   0.00000   4.00000

 Dipole moment (field-independent basis, Debye):
    X=              0.0000    Y=              0.0000    Z=             -0.0000  Tot=              0.0000
 Quadrupole moment (field-independent basis, Debye-Ang):
   XX=            -20.3615   YY=            -20.3615   ZZ=            -20.1364
   XY=              0.0000   XZ=              0.0000   YZ=              0.0000

 -300.1879551\CCSD=-300.1692312\CCSD(T)=-300.2192229\RMSD=7.162e-09\PG=
 Normal termination of Gaussian 16 at Sun Jan 15 00:52:51 2023.
