 Gaussian 16, Revision A.03,
 Gaussian 16:  ES64L-G16RevA.03 25-Dec-2016

 ---------------------------------------------------------------
 #p ROCCSD(T)/cc-pVTZ Guess=Read SCF=(VeryTight,CDIIS,VShift=10)
 ---------------------------------------------------------------

 ---------
 O2_O2_214
 ---------
 Symbolic Z-matrix:
 Charge =  0 Multiplicity = 5

                         Standard orientation:
 ---------------------------------------------------------------------
 Center     Atomic      Atomic             Coordinates (Angstroms)
 Number     Number       Type             X           Y           Z
 ---------------------------------------------------------------------
      1          8           0        0.000000    0.000000    3.822512
      2          8           0        0.000000    0.000000    5.174892
      3          8           0        0.000000    0.000000   -5.174892
      4          8           0        0.000000    0.000000   -3.822512
 ---------------------------------------------------------------------

 SCF Done:  E(ROHF) =  -299.202861744     A.U. after    4 cycles
 E2 =    -0.1041563265D+01 EUMP2 =    -0.30024442500895D+03
 CCSD(T)
 CCSD(T)= -0.30021920795D+03

 The electronic state is 5-SGG.
 Alpha  occ. eigenvalues --  -20.77257 -20.77257 -20.77223 -20.77223  -1.60063
 Alpha  occ. eigenvalues --   -1.60063  -1.23497  -1.23497  -0.77564  -0.77564
 Alpha  occ. eigenvalues --   -0.77564  -0.77564  -0.72002  -0.72002  -0.57628
 Alpha  occ. eigenvalues --   -0.57628  -0.57628  -0.57628
 Alpha virt. eigenvalues --    0.24884   0.24884   0.67614   0.67614   0.69020
 Alpha virt. eigenvalues --    0.69020   0.69020   0.69020   0.75118   0.75118
 Alpha virt. eigenvalues --    0.79139   0.79139   0.79139   0.79139   0.88528

 Mulliken charges and spin densities:
               1          2
     1  O   -0.000100   0.999802
     2  O    0.000100   1.000198
     3  O    0.000100   1.000198
     4  O   -0.000100   0.999802
 Sum of Mulliken charges =  -0.00000   4.00000

 Dipole moment (field-independent basis, Debye):
    X=              0.0000    Y=              0.0000    Z=             -0.0000  Tot=              0.0000
 Quadrupole moment (field-independent basis, Debye-Ang):
   XX=            -20.3615   YY=            -20.3615   ZZ=            -20.1469
   XY=              0.0000   XZ=              0.0000   YZ=              0.0000

 300.1879307\CCSD=-300.1692182\CCSD(T)=-300.2192079\RMSD=6.208e-09\PG=D
 Normal termination of Gaussian 16 at Sun Jan 15 02:09:09 2023.
