 Gaussian 16, Revision A.03,
 Gaussian 16:  ES64L-G16RevA.03 25-Dec-2016

 ---------------------------------------------------------------
 #p ROCCSD(T)/cc-pVTZ Guess=Read SCF=(VeryTight,CDIIS,VShift=10)
 ---------------------------------------------------------------

 --------
 O2_O2_54
 --------
 Symbolic Z-matrix:
 Charge =  0 Multiplicity = 5

                         Standard orientation:
 ---------------------------------------------------------------------
 Center     Atomic      Atomic             Coordinates (Angstroms)
 Number     Number       Type             X           Y           Z
 ---------------------------------------------------------------------
      1          8           0        0.000000    0.000000    1.557139
      2          8           0        0.000000    0.000000    2.909519
      3          8           0        0.000000    0.000000   -2.909519
      4          8           0        0.000000    0.000000   -1.557139
 ---------------------------------------------------------------------

 SCF Done:  E(ROHF) =  -299.202668169     A.U. after   12 cycles
 E2 =    -0.1042575240D+01 EUMP2 =    -0.30024524340826D+03
 CCSD(T)
 CCSD(T)= -0.30021968422D+03

 The electronic state is 5-SGG.
 Alpha  occ. eigenvalues --  -20.77330 -20.77330 -20.77179 -20.77179  -1.60102
 Alpha  occ. eigenvalues --   -1.60057  -1.23666  -1.23374  -0.77627  -0.77627
 Alpha  occ. eigenvalues --   -0.77534  -0.77534  -0.72509  -0.71541  -0.57750
 Alpha  occ. eigenvalues --   -0.57750  -0.57539  -0.57539
 Alpha virt. eigenvalues --    0.22142   0.27649   0.59509   0.67664   0.67664
 Alpha virt. eigenvalues --    0.69821   0.69821   0.69824   0.72071   0.76556
 Alpha virt. eigenvalues --    0.76556   0.82554   0.82554   0.88317   0.88594

 Mulliken charges and spin densities:
               1          2
     1  O   -0.002525   0.995227
     2  O    0.002525   1.004773
     3  O    0.002525   1.004773
     4  O   -0.002525   0.995227
 Sum of Mulliken charges =  -0.00000   4.00000

 Dipole moment (field-independent basis, Debye):
    X=              0.0000    Y=              0.0000    Z=              0.0000  Tot=              0.0000
 Quadrupole moment (field-independent basis, Debye-Ang):
   XX=            -20.3607   YY=            -20.3607   ZZ=            -20.0288
   XY=              0.0000   XZ=              0.0000   YZ=              0.0000

 =-300.1886031\CCSD=-300.1695962\CCSD(T)=-300.2196842\RMSD=2.563e-09\PG
 Normal termination of Gaussian 16 at Sat Jan 14 23:10:34 2023.
