 Gaussian 16, Revision A.03,
 Gaussian 16:  ES64L-G16RevA.03 25-Dec-2016

 ---------------------------------------------------------------
 #p ROCCSD(T)/cc-pVTZ Guess=Read SCF=(VeryTight,CDIIS,VShift=10)
 ---------------------------------------------------------------

 --------
 O2_O2_19
 --------
 Symbolic Z-matrix:
 Charge =  0 Multiplicity = 5

                         Standard orientation:
 ---------------------------------------------------------------------
 Center     Atomic      Atomic             Coordinates (Angstroms)
 Number     Number       Type             X           Y           Z
 ---------------------------------------------------------------------
      1          8           0        0.000000    0.000000    1.061589
      2          8           0        0.000000    0.000000    2.413969
      3          8           0        0.000000    0.000000   -2.413969
      4          8           0        0.000000    0.000000   -1.061589
 ---------------------------------------------------------------------

 SCF Done:  E(ROHF) =  -299.186831321     A.U. after   13 cycles
 E2 =    -0.1043566840D+01 EUMP2 =    -0.30023039816139D+03
 CCSD(T)
 CCSD(T)= -0.30020707886D+03

 The electronic state is 5-SGG.
 Alpha  occ. eigenvalues --  -20.78284 -20.78284 -20.75091 -20.75090  -1.60276
 Alpha  occ. eigenvalues --   -1.59511  -1.25427  -1.21507  -0.77916  -0.77916
 Alpha  occ. eigenvalues --   -0.77031  -0.77031  -0.75470  -0.67939  -0.58306
 Alpha  occ. eigenvalues --   -0.58306  -0.56071  -0.56071
 Alpha virt. eigenvalues --    0.22769   0.32255   0.66345   0.66345   0.66411
 Alpha virt. eigenvalues --    0.69086   0.70274   0.70274   0.74413   0.74413
 Alpha virt. eigenvalues --    0.85118   0.87639   0.89734   0.91437   0.91437

 Mulliken charges and spin densities:
               1          2
     1  O   -0.026663   0.893934
     2  O    0.026663   1.106066
     3  O    0.026663   1.106066
     4  O   -0.026663   0.893934
 Sum of Mulliken charges =  -0.00000   4.00000

 Dipole moment (field-independent basis, Debye):
    X=              0.0000    Y=              0.0000    Z=              0.0000  Tot=              0.0000
 Quadrupole moment (field-independent basis, Debye-Ang):
   XX=            -20.3429   YY=            -20.3429   ZZ=            -18.6842
   XY=              0.0000   XZ=              0.0000   YZ=              0.0000

 =-300.1763581\CCSD=-300.1565145\CCSD(T)=-300.2070789\RMSD=2.204e-09\PG
 Normal termination of Gaussian 16 at Sat Jan 14 22:29:04 2023.
