 Gaussian 16, Revision A.03,
 Gaussian 16:  ES64L-G16RevA.03 25-Dec-2016

 ---------------------------------------------------------------
 #p ROCCSD(T)/cc-pVTZ Guess=Read SCF=(VeryTight,CDIIS,VShift=10)
 ---------------------------------------------------------------

 --------
 O2_O2_25
 --------
 Symbolic Z-matrix:
 Charge =  0 Multiplicity = 5

                         Standard orientation:
 ---------------------------------------------------------------------
 Center     Atomic      Atomic             Coordinates (Angstroms)
 Number     Number       Type             X           Y           Z
 ---------------------------------------------------------------------
      1          8           0        0.000000    0.000000    1.146540
      2          8           0        0.000000    0.000000    2.498920
      3          8           0        0.000000    0.000000   -2.498920
      4          8           0        0.000000    0.000000   -1.146540
 ---------------------------------------------------------------------

 SCF Done:  E(ROHF) =  -299.194800677     A.U. after   12 cycles
 E2 =    -0.1044538649D+01 EUMP2 =    -0.30023933932584D+03
 CCSD(T)
 CCSD(T)= -0.30021398639D+03

 The electronic state is 5-SGG.
 Alpha  occ. eigenvalues --  -20.77885 -20.77885 -20.76029 -20.76028  -1.60210
 Alpha  occ. eigenvalues --   -1.59721  -1.24765  -1.22236  -0.77806  -0.77806
 Alpha  occ. eigenvalues --   -0.77167  -0.77167  -0.74555  -0.69216  -0.58153
 Alpha  occ. eigenvalues --   -0.58153  -0.56706  -0.56706
 Alpha virt. eigenvalues --    0.22615   0.30877   0.65904   0.65904   0.67168
 Alpha virt. eigenvalues --    0.70000   0.70334   0.70334   0.74499   0.74499
 Alpha virt. eigenvalues --    0.79099   0.87804   0.88789   0.89709   0.89709

 Mulliken charges and spin densities:
               1          2
     1  O   -0.015066   0.939008
     2  O    0.015066   1.060992
     3  O    0.015066   1.060992
     4  O   -0.015066   0.939008
 Sum of Mulliken charges =   0.00000   4.00000

 Dipole moment (field-independent basis, Debye):
    X=              0.0000    Y=             -0.0000    Z=             -0.0000  Tot=              0.0000
 Quadrupole moment (field-independent basis, Debye-Ang):
   XX=            -20.3533   YY=            -20.3533   ZZ=            -19.2424
   XY=              0.0000   XZ=              0.0000   YZ=              0.0000

 300.1832811\CCSD=-300.1635596\CCSD(T)=-300.2139864\RMSD=6.954e-09\PG=D
 Normal termination of Gaussian 16 at Sat Jan 14 22:35:48 2023.
