 Gaussian 16, Revision A.03,
 Gaussian 16:  ES64L-G16RevA.03 25-Dec-2016

 ---------------------------------------------------------------
 #p ROCCSD(T)/cc-pVTZ Guess=Read SCF=(VeryTight,CDIIS,VShift=10)
 ---------------------------------------------------------------

 --------
 O2_O2_27
 --------
 Symbolic Z-matrix:
 Charge =  0 Multiplicity = 5

                         Standard orientation:
 ---------------------------------------------------------------------
 Center     Atomic      Atomic             Coordinates (Angstroms)
 Number     Number       Type             X           Y           Z
 ---------------------------------------------------------------------
      1          8           0        0.000000    0.000000    1.174857
      2          8           0        0.000000    0.000000    2.527237
      3          8           0        0.000000    0.000000   -2.527237
      4          8           0        0.000000    0.000000   -1.174857
 ---------------------------------------------------------------------

 SCF Done:  E(ROHF) =  -299.196483558     A.U. after   15 cycles
 E2 =    -0.1044511602D+01 EUMP2 =    -0.30024099516002D+03
 CCSD(T)
 CCSD(T)= -0.30021538301D+03

 The electronic state is 5-SGG.
 Alpha  occ. eigenvalues --  -20.77784 -20.77784 -20.76249 -20.76248  -1.60195
 Alpha  occ. eigenvalues --   -1.59776  -1.24599  -1.22415  -0.77782  -0.77782
 Alpha  occ. eigenvalues --   -0.77213  -0.77213  -0.74301  -0.69543  -0.58107
 Alpha  occ. eigenvalues --   -0.58107  -0.56850  -0.56850
 Alpha virt. eigenvalues --    0.22565   0.30513   0.65863   0.65863   0.67395
 Alpha virt. eigenvalues --    0.70260   0.70335   0.70335   0.74567   0.74567
 Alpha virt. eigenvalues --    0.76966   0.87854   0.88722   0.89137   0.89137

 Mulliken charges and spin densities:
               1          2
     1  O   -0.012488   0.949659
     2  O    0.012488   1.050341
     3  O    0.012488   1.050341
     4  O   -0.012488   0.949659
 Sum of Mulliken charges =  -0.00000   4.00000

 Dipole moment (field-independent basis, Debye):
    X=              0.0000    Y=              0.0000    Z=             -0.0000  Tot=              0.0000
 Quadrupole moment (field-independent basis, Debye-Ang):
   XX=            -20.3552   YY=            -20.3552   ZZ=            -19.3820
   XY=              0.0000   XZ=              0.0000   YZ=              0.0000

 =-300.1846514\CCSD=-300.1649981\CCSD(T)=-300.215383\RMSD=9.038e-10\PG=
 Normal termination of Gaussian 16 at Sat Jan 14 22:38:10 2023.
