 Gaussian 16, Revision A.03,
 Gaussian 16:  ES64L-G16RevA.03 25-Dec-2016

 ---------------------------------------------------------------
 #p ROCCSD(T)/cc-pVTZ Guess=Read SCF=(VeryTight,CDIIS,VShift=10)
 ---------------------------------------------------------------

 --------
 O2_O2_65
 --------
 Symbolic Z-matrix:
 Charge =  0 Multiplicity = 5

                         Standard orientation:
 ---------------------------------------------------------------------
 Center     Atomic      Atomic             Coordinates (Angstroms)
 Number     Number       Type             X           Y           Z
 ---------------------------------------------------------------------
      1          8           0        0.000000    0.000000    1.712883
      2          8           0        0.000000    0.000000    3.065264
      3          8           0        0.000000    0.000000   -3.065264
      4          8           0        0.000000    0.000000   -1.712883
 ---------------------------------------------------------------------

 SCF Done:  E(ROHF) =  -299.202854336     A.U. after   12 cycles
 E2 =    -0.1042181778D+01 EUMP2 =    -0.30024503611415D+03
 CCSD(T)
 CCSD(T)= -0.30021959238D+03

 The electronic state is 5-SGG.
 Alpha  occ. eigenvalues --  -20.77302 -20.77302 -20.77218 -20.77218  -1.60090
 Alpha  occ. eigenvalues --   -1.60072  -1.23580  -1.23454  -0.77604  -0.77604
 Alpha  occ. eigenvalues --   -0.77561  -0.77561  -0.72269  -0.71774  -0.57698
 Alpha  occ. eigenvalues --   -0.57698  -0.57596  -0.57596
 Alpha virt. eigenvalues --    0.22424   0.26947   0.58547   0.68303   0.68303
 Alpha virt. eigenvalues --    0.69527   0.69527   0.70362   0.72458   0.77530
 Alpha virt. eigenvalues --    0.77530   0.80992   0.80992   0.88403   0.88572

 Mulliken charges and spin densities:
               1          2
     1  O   -0.001682   0.997493
     2  O    0.001682   1.002507
     3  O    0.001682   1.002507
     4  O   -0.001682   0.997493
 Sum of Mulliken charges =  -0.00000   4.00000

 Dipole moment (field-independent basis, Debye):
    X=              0.0000    Y=              0.0000    Z=             -0.0000  Tot=              0.0000
 Quadrupole moment (field-independent basis, Debye-Ang):
   XX=            -20.3610   YY=            -20.3610   ZZ=            -20.0681
   XY=              0.0000   XZ=              0.0000   YZ=              0.0000

 =-300.1884467\CCSD=-300.1695461\CCSD(T)=-300.2195924\RMSD=6.532e-09\PG
 Normal termination of Gaussian 16 at Sat Jan 14 23:23:20 2023.
