 Gaussian 16, Revision A.03,
 Gaussian 16:  ES64L-G16RevA.03 25-Dec-2016

 ---------------------------------------------------------------
 #p ROCCSD(T)/cc-pVTZ Guess=Read SCF=(VeryTight,CDIIS,VShift=10)
 ---------------------------------------------------------------

 ---------
 O2_O2_105
 ---------
 Symbolic Z-matrix:
 Charge =  0 Multiplicity = 5

                         Standard orientation:
 ---------------------------------------------------------------------
 Center     Atomic      Atomic             Coordinates (Angstroms)
 Number     Number       Type             X           Y           Z
 ---------------------------------------------------------------------
      1          8           0        0.000000    0.000000    2.279227
      2          8           0        0.000000    0.000000    3.631607
      3          8           0        0.000000    0.000000   -3.631607
      4          8           0        0.000000    0.000000   -2.279227
 ---------------------------------------------------------------------

 SCF Done:  E(ROHF) =  -299.202867159     A.U. after    4 cycles
 E2 =    -0.1041675126D+01 EUMP2 =    -0.30024454228519D+03
 CCSD(T)
 CCSD(T)= -0.30021927572D+03

 The electronic state is 5-SGG.
 Alpha  occ. eigenvalues --  -20.77268 -20.77268 -20.77226 -20.77226  -1.60070
 Alpha  occ. eigenvalues --   -1.60069  -1.23507  -1.23502  -0.77572  -0.77572
 Alpha  occ. eigenvalues --   -0.77570  -0.77570  -0.72029  -0.71990  -0.57638
 Alpha  occ. eigenvalues --   -0.57638  -0.57632  -0.57632
 Alpha virt. eigenvalues --    0.24456   0.25260   0.65914   0.68951   0.68980
 Alpha virt. eigenvalues --    0.68980   0.69049   0.69049   0.74366   0.76237
 Alpha virt. eigenvalues --    0.79034   0.79034   0.79233   0.79233   0.88522

 Mulliken charges and spin densities:
               1          2
     1  O   -0.000487   0.999184
     2  O    0.000487   1.000816
     3  O    0.000487   1.000816
     4  O   -0.000487   0.999184
 Sum of Mulliken charges =   0.00000   4.00000

 Dipole moment (field-independent basis, Debye):
    X=              0.0000    Y=              0.0000    Z=             -0.0000  Tot=              0.0000
 Quadrupole moment (field-independent basis, Debye-Ang):
   XX=            -20.3615   YY=            -20.3615   ZZ=            -20.1198
   XY=              0.0000   XZ=              0.0000   YZ=              0.0000

 Q=-300.1880329\CCSD=-300.1692777\CCSD(T)=-300.2192757\RMSD=7.943e-09\P
 Normal termination of Gaussian 16 at Sun Jan 15 00:08:08 2023.
