 Gaussian 16, Revision A.03,
 Gaussian 16:  ES64L-G16RevA.03 25-Dec-2016

 ---------------------------------------------------------------
 #p ROCCSD(T)/cc-pVTZ Guess=Read SCF=(VeryTight,CDIIS,VShift=10)
 ---------------------------------------------------------------

 -------
 O2_O2_1
 -------
 Symbolic Z-matrix:
 Charge =  0 Multiplicity = 5

                         Standard orientation:
 ---------------------------------------------------------------------
 Center     Atomic      Atomic             Coordinates (Angstroms)
 Number     Number       Type             X           Y           Z
 ---------------------------------------------------------------------
      1          8           0        0.000000    0.000000    0.806734
      2          8           0        0.000000    0.000000    2.159114
      3          8           0        0.000000    0.000000   -2.159114
      4          8           0        0.000000    0.000000   -0.806734
 ---------------------------------------------------------------------

 SCF Done:  E(ROHF) =  -299.092784415     A.U. after   11 cycles
 E2 =    -0.1011515877D+01 EUMP2 =    -0.30010430029296D+03
 CCSD(T)
 CCSD(T)= -0.30011642541D+03

 The electronic state is 5-SGG.
 Alpha  occ. eigenvalues --  -20.79427 -20.79426 -20.69501 -20.69501  -1.61167
 Alpha  occ. eigenvalues --   -1.58489  -1.30778  -1.16507  -0.79965  -0.79091
 Alpha  occ. eigenvalues --   -0.79091  -0.77154  -0.77154  -0.59410  -0.59410
 Alpha  occ. eigenvalues --   -0.59276  -0.50697  -0.50697
 Alpha virt. eigenvalues --    0.22586   0.41549   0.64409   0.65655   0.68456
 Alpha virt. eigenvalues --    0.68456   0.69794   0.69794   0.77471   0.77471
 Alpha virt. eigenvalues --    0.86607   0.86632   0.96383   0.96383   1.03888

 Mulliken charges and spin densities:
               1          2
     1  O   -0.089640   0.636573
     2  O    0.089640   1.363427
     3  O    0.089640   1.363427
     4  O   -0.089640   0.636573
 Sum of Mulliken charges =  -0.00000   4.00000

 Dipole moment (field-independent basis, Debye):
    X=              0.0000    Y=             -0.0000    Z=              0.0000  Tot=              0.0000
 Quadrupole moment (field-independent basis, Debye-Ang):
   XX=            -20.1896   YY=            -20.1896   ZZ=            -16.6525
   XY=              0.0000   XZ=             -0.0000   YZ=              0.0000

 -300.0801794\CCSD=-300.0651962\CCSD(T)=-300.1164254\RMSD=6.207e-09\PG=
 Normal termination of Gaussian 16 at Sat Jan 14 22:08:10 2023.
