 Gaussian 16, Revision A.03,
 Gaussian 16:  ES64L-G16RevA.03 25-Dec-2016

 ---------------------------------------------------------------
 #p ROCCSD(T)/cc-pVTZ Guess=Read SCF=(VeryTight,CDIIS,VShift=10)
 ---------------------------------------------------------------

 --------
 O2_O2_69
 --------
 Symbolic Z-matrix:
 Charge =  0 Multiplicity = 5

                         Standard orientation:
 ---------------------------------------------------------------------
 Center     Atomic      Atomic             Coordinates (Angstroms)
 Number     Number       Type             X           Y           Z
 ---------------------------------------------------------------------
      1          8           0        0.000000    0.000000    1.769518
      2          8           0        0.000000    0.000000    3.121898
      3          8           0        0.000000    0.000000   -3.121898
      4          8           0        0.000000    0.000000   -1.769518
 ---------------------------------------------------------------------

 SCF Done:  E(ROHF) =  -299.202877441     A.U. after   12 cycles
 E2 =    -0.1042079628D+01 EUMP2 =    -0.30024495706887D+03
 CCSD(T)
 CCSD(T)= -0.30021954519D+03

 The electronic state is 5-SGG.
 Alpha  occ. eigenvalues --  -20.77295 -20.77295 -20.77224 -20.77224  -1.60087
 Alpha  occ. eigenvalues --   -1.60074  -1.23562  -1.23470  -0.77598  -0.77598
 Alpha  occ. eigenvalues --   -0.77566  -0.77566  -0.72214  -0.71826  -0.57685
 Alpha  occ. eigenvalues --   -0.57685  -0.57608  -0.57608
 Alpha virt. eigenvalues --    0.22617   0.26719   0.58878   0.68463   0.68463
 Alpha virt. eigenvalues --    0.69434   0.69434   0.70463   0.72606   0.77831
 Alpha virt. eigenvalues --    0.77831   0.80590   0.80590   0.88410   0.88564

 Mulliken charges and spin densities:
               1          2
     1  O   -0.001431   0.997932
     2  O    0.001431   1.002068
     3  O    0.001431   1.002068
     4  O   -0.001431   0.997932
 Sum of Mulliken charges =  -0.00000   4.00000

 Dipole moment (field-independent basis, Debye):
    X=              0.0000    Y=              0.0000    Z=             -0.0000  Tot=              0.0000
 Quadrupole moment (field-independent basis, Debye-Ang):
   XX=            -20.3611   YY=            -20.3611   ZZ=            -20.0770
   XY=              0.0000   XZ=              0.0000   YZ=              0.0000

 =-300.1883822\CCSD=-300.1695093\CCSD(T)=-300.2195452\RMSD=4.501e-09\PG
 Normal termination of Gaussian 16 at Sat Jan 14 23:27:51 2023.
