 Gaussian 16, Revision A.03,
 Gaussian 16:  ES64L-G16RevA.03 25-Dec-2016

 ---------------------------------------------------------------
 #p ROCCSD(T)/cc-pVTZ Guess=Read SCF=(VeryTight,CDIIS,VShift=10)
 ---------------------------------------------------------------

 --------
 O2_O2_29
 --------
 Symbolic Z-matrix:
 Charge =  0 Multiplicity = 5

                         Standard orientation:
 ---------------------------------------------------------------------
 Center     Atomic      Atomic             Coordinates (Angstroms)
 Number     Number       Type             X           Y           Z
 ---------------------------------------------------------------------
      1          8           0        0.000000    0.000000    1.203175
      2          8           0        0.000000    0.000000    2.555555
      3          8           0        0.000000    0.000000   -2.555555
      4          8           0        0.000000    0.000000   -1.203175
 ---------------------------------------------------------------------

 SCF Done:  E(ROHF) =  -299.197827264     A.U. after   11 cycles
 E2 =    -0.1044404951D+01 EUMP2 =    -0.30024223221439D+03
 CCSD(T)
 CCSD(T)= -0.30021647161D+03

 The electronic state is 5-SGG.
 Alpha  occ. eigenvalues --  -20.77699 -20.77699 -20.76431 -20.76431  -1.60182
 Alpha  occ. eigenvalues --   -1.59824  -1.24454  -1.22569  -0.77761  -0.77761
 Alpha  occ. eigenvalues --   -0.77257  -0.77257  -0.74069  -0.69831  -0.58063
 Alpha  occ. eigenvalues --   -0.58063  -0.56969  -0.56969
 Alpha virt. eigenvalues --    0.22514   0.30184   0.65869   0.65869   0.67611
 Alpha virt. eigenvalues --    0.70329   0.70329   0.70498   0.74650   0.74650
 Alpha virt. eigenvalues --    0.74906   0.87902   0.88569   0.88569   0.88685

 Mulliken charges and spin densities:
               1          2
     1  O   -0.010393   0.958543
     2  O    0.010393   1.041457
     3  O    0.010393   1.041457
     4  O   -0.010393   0.958543
 Sum of Mulliken charges =  -0.00000   4.00000

 Dipole moment (field-independent basis, Debye):
    X=              0.0000    Y=             -0.0000    Z=              0.0000  Tot=              0.0000
 Quadrupole moment (field-independent basis, Debye-Ang):
   XX=            -20.3566   YY=            -20.3566   ZZ=            -19.5012
   XY=              0.0000   XZ=              0.0000   YZ=              0.0000

 =-300.1857082\CCSD=-300.1661254\CCSD(T)=-300.2164716\RMSD=8.955e-09\PG
 Normal termination of Gaussian 16 at Sat Jan 14 22:40:31 2023.
