 Gaussian 16, Revision A.03,
 Gaussian 16:  ES64L-G16RevA.03 25-Dec-2016

 ---------------------------------------------------------------
 #p ROCCSD(T)/cc-pVTZ Guess=Read SCF=(VeryTight,CDIIS,VShift=10)
 ---------------------------------------------------------------

 --------
 O2_O2_93
 --------
 Symbolic Z-matrix:
 Charge =  0 Multiplicity = 5

                         Standard orientation:
 ---------------------------------------------------------------------
 Center     Atomic      Atomic             Coordinates (Angstroms)
 Number     Number       Type             X           Y           Z
 ---------------------------------------------------------------------
      1          8           0        0.000000    0.000000    2.109323
      2          8           0        0.000000    0.000000    3.461704
      3          8           0        0.000000    0.000000   -3.461704
      4          8           0        0.000000    0.000000   -2.109323
 ---------------------------------------------------------------------

 SCF Done:  E(ROHF) =  -299.202878989     A.U. after    4 cycles
 E2 =    -0.1041741564D+01 EUMP2 =    -0.30024462055324D+03
 CCSD(T)
 CCSD(T)= -0.30021932675D+03

 The electronic state is 5-SGG.
 Alpha  occ. eigenvalues --  -20.77273 -20.77273 -20.77227 -20.77227  -1.60073
 Alpha  occ. eigenvalues --   -1.60072  -1.23514  -1.23500  -0.77576  -0.77576
 Alpha  occ. eigenvalues --   -0.77571  -0.77571  -0.72056  -0.71969  -0.57645
 Alpha  occ. eigenvalues --   -0.57645  -0.57631  -0.57631
 Alpha virt. eigenvalues --    0.24012   0.25611   0.63986   0.68917   0.68917
 Alpha virt. eigenvalues --    0.69103   0.69103   0.69844   0.73756   0.78193
 Alpha virt. eigenvalues --    0.78866   0.78866   0.79401   0.79401   0.88512

 Mulliken charges and spin densities:
               1          2
     1  O   -0.000652   0.998980
     2  O    0.000652   1.001020
     3  O    0.000652   1.001020
     4  O   -0.000652   0.998980
 Sum of Mulliken charges =  -0.00000   4.00000

 Dipole moment (field-independent basis, Debye):
    X=              0.0000    Y=             -0.0000    Z=             -0.0000  Tot=              0.0000
 Quadrupole moment (field-independent basis, Debye-Ang):
   XX=            -20.3614   YY=            -20.3614   ZZ=            -20.1097
   XY=              0.0000   XZ=              0.0000   YZ=              0.0000

 300.1881004\CCSD=-300.1693232\CCSD(T)=-300.2193267\RMSD=7.303e-09\PG=D
 Normal termination of Gaussian 16 at Sat Jan 14 23:54:13 2023.
