 Gaussian 16, Revision A.03,
 Gaussian 16:  ES64L-G16RevA.03 25-Dec-2016

 ---------------------------------------------------------------
 #p ROCCSD(T)/cc-pVTZ Guess=Read SCF=(VeryTight,CDIIS,VShift=10)
 ---------------------------------------------------------------

 --------
 O2_O2_44
 --------
 Symbolic Z-matrix:
 Charge =  0 Multiplicity = 5

                         Standard orientation:
 ---------------------------------------------------------------------
 Center     Atomic      Atomic             Coordinates (Angstroms)
 Number     Number       Type             X           Y           Z
 ---------------------------------------------------------------------
      1          8           0        0.000000    0.000000    1.415553
      2          8           0        0.000000    0.000000    2.767933
      3          8           0        0.000000    0.000000   -2.767933
      4          8           0        0.000000    0.000000   -1.415553
 ---------------------------------------------------------------------

 SCF Done:  E(ROHF) =  -299.202069752     A.U. after   15 cycles
 E2 =    -0.1043146949D+01 EUMP2 =    -0.30024521670141D+03
 CCSD(T)
 CCSD(T)= -0.30021950158D+03

 The electronic state is 5-SGG.
 Alpha  occ. eigenvalues --  -20.77388 -20.77388 -20.77071 -20.77071  -1.60121
 Alpha  occ. eigenvalues --   -1.60016  -1.23832  -1.23212  -0.77662  -0.77662
 Alpha  occ. eigenvalues --   -0.77475  -0.77475  -0.72903  -0.71142  -0.57831
 Alpha  occ. eigenvalues --   -0.57831  -0.57428  -0.57428
 Alpha virt. eigenvalues --    0.22190   0.28435   0.63290   0.66842   0.66842
 Alpha virt. eigenvalues --    0.69050   0.70087   0.70087   0.71651   0.75645
 Alpha virt. eigenvalues --    0.75645   0.84611   0.84611   0.88191   0.88616

 Mulliken charges and spin densities:
               1          2
     1  O   -0.003664   0.989759
     2  O    0.003664   1.010241
     3  O    0.003664   1.010241
     4  O   -0.003664   0.989759
 Sum of Mulliken charges =  -0.00000   4.00000

 Dipole moment (field-independent basis, Debye):
    X=              0.0000    Y=              0.0000    Z=              0.0000  Tot=              0.0000
 Quadrupole moment (field-independent basis, Debye-Ang):
   XX=            -20.3601   YY=            -20.3601   ZZ=            -19.9438
   XY=              0.0000   XZ=              0.0000   YZ=              0.0000

 -300.1885126\CCSD=-300.1693488\CCSD(T)=-300.2195016\RMSD=5.330e-10\PG=
 Normal termination of Gaussian 16 at Sat Jan 14 22:57:43 2023.
