 Gaussian 16, Revision A.03,
 Gaussian 16:  ES64L-G16RevA.03 25-Dec-2016

 ---------------------------------------------------------------
 #p ROCCSD(T)/cc-pVTZ Guess=Read SCF=(VeryTight,CDIIS,VShift=10)
 ---------------------------------------------------------------

 --------
 O2_O2_88
 --------
 Symbolic Z-matrix:
 Charge =  0 Multiplicity = 5

                         Standard orientation:
 ---------------------------------------------------------------------
 Center     Atomic      Atomic             Coordinates (Angstroms)
 Number     Number       Type             X           Y           Z
 ---------------------------------------------------------------------
      1          8           0        0.000000    0.000000    2.038531
      2          8           0        0.000000    0.000000    3.390911
      3          8           0        0.000000    0.000000   -3.390911
      4          8           0        0.000000    0.000000   -2.038531
 ---------------------------------------------------------------------

 SCF Done:  E(ROHF) =  -299.202885491     A.U. after    5 cycles
 E2 =    -0.1041783431D+01 EUMP2 =    -0.30024466892204D+03
 CCSD(T)
 CCSD(T)= -0.30021935899D+03

 The electronic state is 5-SGG.
 Alpha  occ. eigenvalues --  -20.77276 -20.77276 -20.77228 -20.77228  -1.60075
 Alpha  occ. eigenvalues --   -1.60073  -1.23519  -1.23499  -0.77579  -0.77579
 Alpha  occ. eigenvalues --   -0.77571  -0.77571  -0.72074  -0.71954  -0.57650
 Alpha  occ. eigenvalues --   -0.57650  -0.57630  -0.57630
 Alpha virt. eigenvalues --    0.23757   0.25801   0.62889   0.68870   0.68870
 Alpha virt. eigenvalues --    0.69143   0.69143   0.70151   0.73485   0.78745
 Alpha virt. eigenvalues --    0.78745   0.79526   0.79526   0.79648   0.88505

 Mulliken charges and spin densities:
               1          2
     1  O   -0.000724   0.998921
     2  O    0.000724   1.001079
     3  O    0.000724   1.001079
     4  O   -0.000724   0.998921
 Sum of Mulliken charges =  -0.00000   4.00000

 Dipole moment (field-independent basis, Debye):
    X=              0.0000    Y=             -0.0000    Z=              0.0000  Tot=              0.0000
 Quadrupole moment (field-independent basis, Debye-Ang):
   XX=            -20.3614   YY=            -20.3614   ZZ=            -20.1059
   XY=              0.0000   XZ=              0.0000   YZ=              0.0000

 =-300.1881416\CCSD=-300.1693517\CCSD(T)=-300.219359\RMSD=4.946e-09\PG=
 Normal termination of Gaussian 16 at Sat Jan 14 23:48:51 2023.
