 Gaussian 16, Revision A.03,
 Gaussian 16:  ES64L-G16RevA.03 25-Dec-2016

 ---------------------------------------------------------------
 #p ROCCSD(T)/cc-pVTZ Guess=Read SCF=(VeryTight,CDIIS,VShift=10)
 ---------------------------------------------------------------

 --------
 O2_O2_91
 --------
 Symbolic Z-matrix:
 Charge =  0 Multiplicity = 5

                         Standard orientation:
 ---------------------------------------------------------------------
 Center     Atomic      Atomic             Coordinates (Angstroms)
 Number     Number       Type             X           Y           Z
 ---------------------------------------------------------------------
      1          8           0        0.000000    0.000000    2.081007
      2          8           0        0.000000    0.000000    3.433387
      3          8           0        0.000000    0.000000   -3.433387
      4          8           0        0.000000    0.000000   -2.081007
 ---------------------------------------------------------------------

 SCF Done:  E(ROHF) =  -299.202881576     A.U. after    6 cycles
 E2 =    -0.1041757038D+01 EUMP2 =    -0.30024463861375D+03
 CCSD(T)
 CCSD(T)= -0.30021933874D+03

 The electronic state is 5-SGG.
 Alpha  occ. eigenvalues --  -20.77274 -20.77274 -20.77228 -20.77228  -1.60074
 Alpha  occ. eigenvalues --   -1.60072  -1.23516  -1.23500  -0.77577  -0.77577
 Alpha  occ. eigenvalues --   -0.77571  -0.77571  -0.72062  -0.71963  -0.57647
 Alpha  occ. eigenvalues --   -0.57647  -0.57631  -0.57631
 Alpha virt. eigenvalues --    0.23915   0.25684   0.63564   0.68900   0.68900
 Alpha virt. eigenvalues --    0.69118   0.69118   0.69976   0.73647   0.78720
 Alpha virt. eigenvalues --    0.78823   0.78823   0.79446   0.79446   0.88510

 Mulliken charges and spin densities:
               1          2
     1  O   -0.000678   0.998958
     2  O    0.000678   1.001042
     3  O    0.000678   1.001042
     4  O   -0.000678   0.998958
 Sum of Mulliken charges =  -0.00000   4.00000

 Dipole moment (field-independent basis, Debye):
    X=              0.0000    Y=              0.0000    Z=             -0.0000  Tot=              0.0000
 Quadrupole moment (field-independent basis, Debye-Ang):
   XX=            -20.3614   YY=            -20.3614   ZZ=            -20.1082
   XY=              0.0000   XZ=              0.0000   YZ=              0.0000

 =-300.1881158\CCSD=-300.1693338\CCSD(T)=-300.2193387\RMSD=2.837e-09\PG
 Normal termination of Gaussian 16 at Sat Jan 14 23:52:03 2023.
