 Gaussian 16, Revision A.03,
 Gaussian 16:  ES64L-G16RevA.03 25-Dec-2016

 ---------------------------------------------------------------
 #p ROCCSD(T)/cc-pVTZ Guess=Read SCF=(VeryTight,CDIIS,VShift=10)
 ---------------------------------------------------------------

 --------
 O2_O2_47
 --------
 Symbolic Z-matrix:
 Charge =  0 Multiplicity = 5

                         Standard orientation:
 ---------------------------------------------------------------------
 Center     Atomic      Atomic             Coordinates (Angstroms)
 Number     Number       Type             X           Y           Z
 ---------------------------------------------------------------------
      1          8           0        0.000000    0.000000    1.458029
      2          8           0        0.000000    0.000000    2.810409
      3          8           0        0.000000    0.000000   -2.810409
      4          8           0        0.000000    0.000000   -1.458029
 ---------------------------------------------------------------------

 SCF Done:  E(ROHF) =  -299.202328227     A.U. after   14 cycles
 E2 =    -0.1042948075D+01 EUMP2 =    -0.30024527630212D+03
 CCSD(T)
 CCSD(T)= -0.30021961363D+03

 The electronic state is 5-SGG.
 Alpha  occ. eigenvalues --  -20.77365 -20.77365 -20.77116 -20.77116  -1.60114
 Alpha  occ. eigenvalues --   -1.60033  -1.23769  -1.23274  -0.77650  -0.77650
 Alpha  occ. eigenvalues --   -0.77497  -0.77497  -0.72761  -0.71288  -0.57802
 Alpha  occ. eigenvalues --   -0.57802  -0.57470  -0.57470
 Alpha virt. eigenvalues --    0.22152   0.28178   0.61837   0.67104   0.67104
 Alpha virt. eigenvalues --    0.69305   0.70011   0.70011   0.71793   0.75907
 Alpha virt. eigenvalues --    0.75907   0.83932   0.83932   0.88234   0.88609

 Mulliken charges and spin densities:
               1          2
     1  O   -0.003233   0.992003
     2  O    0.003233   1.007997
     3  O    0.003233   1.007997
     4  O   -0.003233   0.992003
 Sum of Mulliken charges =   0.00000   4.00000

 Dipole moment (field-independent basis, Debye):
    X=              0.0000    Y=             -0.0000    Z=             -0.0000  Tot=              0.0000
 Quadrupole moment (field-independent basis, Debye-Ang):
   XX=            -20.3603   YY=            -20.3603   ZZ=            -19.9779
   XY=              0.0000   XZ=              0.0000   YZ=              0.0000

 =-300.1885925\CCSD=-300.169484\CCSD(T)=-300.2196136\RMSD=6.185e-09\PG=
 Normal termination of Gaussian 16 at Sat Jan 14 23:01:55 2023.
