 Gaussian 16, Revision A.03,
 Gaussian 16:  ES64L-G16RevA.03 25-Dec-2016

 ---------------------------------------------------------------
 #p ROCCSD(T)/cc-pVTZ Guess=Read SCF=(VeryTight,CDIIS,VShift=10)
 ---------------------------------------------------------------

 --------
 O2_O2_58
 --------
 Symbolic Z-matrix:
 Charge =  0 Multiplicity = 5

                         Standard orientation:
 ---------------------------------------------------------------------
 Center     Atomic      Atomic             Coordinates (Angstroms)
 Number     Number       Type             X           Y           Z
 ---------------------------------------------------------------------
      1          8           0        0.000000    0.000000    1.613774
      2          8           0        0.000000    0.000000    2.966154
      3          8           0        0.000000    0.000000   -2.966154
      4          8           0        0.000000    0.000000   -1.613774
 ---------------------------------------------------------------------

 SCF Done:  E(ROHF) =  -299.202766276     A.U. after   17 cycles
 E2 =    -0.1042409563D+01 EUMP2 =    -0.30024517583893D+03
 CCSD(T)
 CCSD(T)= -0.30021966429D+03

 The electronic state is 5-SGG.
 Alpha  occ. eigenvalues --  -20.77317 -20.77317 -20.77199 -20.77199  -1.60097
 Alpha  occ. eigenvalues --   -1.60065  -1.23627  -1.23412  -0.77617  -0.77617
 Alpha  occ. eigenvalues --   -0.77547  -0.77547  -0.72404  -0.71644  -0.57727
 Alpha  occ. eigenvalues --   -0.57727  -0.57566  -0.57566
 Alpha virt. eigenvalues --    0.22200   0.27379   0.58804   0.67932   0.67932
 Alpha virt. eigenvalues --    0.69710   0.69710   0.70062   0.72213   0.76928
 Alpha virt. eigenvalues --    0.76928   0.81903   0.81903   0.88355   0.88586

 Mulliken charges and spin densities:
               1          2
     1  O   -0.002196   0.996303
     2  O    0.002196   1.003697
     3  O    0.002196   1.003697
     4  O   -0.002196   0.996303
 Sum of Mulliken charges =  -0.00000   4.00000

 Dipole moment (field-independent basis, Debye):
    X=              0.0000    Y=             -0.0000    Z=              0.0000  Tot=              0.0000
 Quadrupole moment (field-independent basis, Debye-Ang):
   XX=            -20.3608   YY=            -20.3608   ZZ=            -20.0467
   XY=              0.0000   XZ=              0.0000   YZ=              0.0000

 -300.1885563\CCSD=-300.1695941\CCSD(T)=-300.2196643\RMSD=2.353e-09\PG=
 Normal termination of Gaussian 16 at Sat Jan 14 23:15:04 2023.
