 Gaussian 16, Revision A.03,
 Gaussian 16:  ES64L-G16RevA.03 25-Dec-2016

 ---------------------------------------------------------------
 #p ROCCSD(T)/cc-pVTZ Guess=Read SCF=(VeryTight,CDIIS,VShift=10)
 ---------------------------------------------------------------

 --------
 O2_O2_45
 --------
 Symbolic Z-matrix:
 Charge =  0 Multiplicity = 5

                         Standard orientation:
 ---------------------------------------------------------------------
 Center     Atomic      Atomic             Coordinates (Angstroms)
 Number     Number       Type             X           Y           Z
 ---------------------------------------------------------------------
      1          8           0        0.000000    0.000000    1.429712
      2          8           0        0.000000    0.000000    2.782092
      3          8           0        0.000000    0.000000   -2.782092
      4          8           0        0.000000    0.000000   -1.429712
 ---------------------------------------------------------------------

 SCF Done:  E(ROHF) =  -299.202166352     A.U. after   12 cycles
 E2 =    -0.1043077804D+01 EUMP2 =    -0.30024524415597D+03
 CCSD(T)
 CCSD(T)= -0.30021954708D+03

 The electronic state is 5-SGG.
 Alpha  occ. eigenvalues --  -20.77379 -20.77379 -20.77088 -20.77087  -1.60119
 Alpha  occ. eigenvalues --   -1.60022  -1.23809  -1.23234  -0.77658  -0.77658
 Alpha  occ. eigenvalues --   -0.77483  -0.77483  -0.72853  -0.71193  -0.57821
 Alpha  occ. eigenvalues --   -0.57821  -0.57443  -0.57443
 Alpha virt. eigenvalues --    0.22176   0.28347   0.62774   0.66930   0.66930
 Alpha virt. eigenvalues --    0.69137   0.70062   0.70062   0.71700   0.75731
 Alpha virt. eigenvalues --    0.75731   0.84379   0.84379   0.88206   0.88614

 Mulliken charges and spin densities:
               1          2
     1  O   -0.003506   0.990585
     2  O    0.003506   1.009415
     3  O    0.003506   1.009415
     4  O   -0.003506   0.990585
 Sum of Mulliken charges =  -0.00000   4.00000

 Dipole moment (field-independent basis, Debye):
    X=              0.0000    Y=              0.0000    Z=              0.0000  Tot=              0.0000
 Quadrupole moment (field-independent basis, Debye-Ang):
   XX=            -20.3602   YY=            -20.3602   ZZ=            -19.9563
   XY=              0.0000   XZ=              0.0000   YZ=              0.0000

 =-300.1885467\CCSD=-300.1694024\CCSD(T)=-300.2195471\RMSD=3.937e-09\PG
 Normal termination of Gaussian 16 at Sat Jan 14 22:58:52 2023.
