 Gaussian 16, Revision A.03,
 Gaussian 16:  ES64L-G16RevA.03 25-Dec-2016

 ---------------------------------------------------------------
 #p ROCCSD(T)/cc-pVTZ Guess=Read SCF=(VeryTight,CDIIS,VShift=10)
 ---------------------------------------------------------------

 ---------
 O2_O2_140
 ---------
 Symbolic Z-matrix:
 Charge =  0 Multiplicity = 5

                         Standard orientation:
 ---------------------------------------------------------------------
 Center     Atomic      Atomic             Coordinates (Angstroms)
 Number     Number       Type             X           Y           Z
 ---------------------------------------------------------------------
      1          8           0        0.000000    0.000000    2.774777
      2          8           0        0.000000    0.000000    4.127157
      3          8           0        0.000000    0.000000   -4.127157
      4          8           0        0.000000    0.000000   -2.774777
 ---------------------------------------------------------------------

 SCF Done:  E(ROHF) =  -299.202861416     A.U. after    3 cycles
 E2 =    -0.1041597684D+01 EUMP2 =    -0.30024445910035D+03
 CCSD(T)
 CCSD(T)= -0.30021922626D+03

 The electronic state is 5-SGG.
 Alpha  occ. eigenvalues --  -20.77261 -20.77261 -20.77224 -20.77224  -1.60066
 Alpha  occ. eigenvalues --   -1.60066  -1.23500  -1.23500  -0.77567  -0.77567
 Alpha  occ. eigenvalues --   -0.77567  -0.77567  -0.72006  -0.72004  -0.57631
 Alpha  occ. eigenvalues --   -0.57631  -0.57631  -0.57631
 Alpha virt. eigenvalues --    0.24854   0.24907   0.67516   0.67702   0.69017
 Alpha virt. eigenvalues --    0.69017   0.69019   0.69019   0.75071   0.75157
 Alpha virt. eigenvalues --    0.79133   0.79133   0.79139   0.79139   0.88525

 Mulliken charges and spin densities:
               1          2
     1  O   -0.000262   0.999517
     2  O    0.000262   1.000483
     3  O    0.000262   1.000483
     4  O   -0.000262   0.999517
 Sum of Mulliken charges =   0.00000   4.00000

 Dipole moment (field-independent basis, Debye):
    X=              0.0000    Y=              0.0000    Z=              0.0000  Tot=              0.0000
 Quadrupole moment (field-independent basis, Debye-Ang):
   XX=            -20.3615   YY=            -20.3615   ZZ=            -20.1345
   XY=              0.0000   XZ=              0.0000   YZ=              0.0000

 =-300.1879605\CCSD=-300.1692341\CCSD(T)=-300.2192263\RMSD=7.347e-09\PG
 Normal termination of Gaussian 16 at Sun Jan 15 00:46:25 2023.
