 Gaussian 16, Revision A.03,
 Gaussian 16:  ES64L-G16RevA.03 25-Dec-2016

 ----------------------------------------------------
 #p ROCCSD(T)/cc-pVTZ SCF=(VeryTight,CDIIS,VShift=10)
 ----------------------------------------------------

 -------
 O2_O2_0
 -------
 Symbolic Z-matrix:
 Charge =  0 Multiplicity = 5

                         Standard orientation:
 ---------------------------------------------------------------------
 Center     Atomic      Atomic             Coordinates (Angstroms)
 Number     Number       Type             X           Y           Z
 ---------------------------------------------------------------------
      1          8           0        0.000000    0.000000    0.792575
      2          8           0        0.000000    0.000000    2.144956
      3          8           0        0.000000    0.000000   -2.144956
      4          8           0        0.000000    0.000000   -0.792575
 ---------------------------------------------------------------------

 SCF Done:  E(ROHF) =  -299.081184129     A.U. after   17 cycles
 E2 =    -0.1008358252D+01 EUMP2 =    -0.30008954238116D+03
 CCSD(T)
 CCSD(T)= -0.30010489394D+03

 The electronic state is 5-SGG.
 Alpha  occ. eigenvalues --  -20.79394 -20.79393 -20.69139 -20.69138  -1.61301
 Alpha  occ. eigenvalues --   -1.58405  -1.31380  -1.16077  -0.80299  -0.79200
 Alpha  occ. eigenvalues --   -0.79200  -0.77162  -0.77162  -0.59588  -0.59588
 Alpha  occ. eigenvalues --   -0.58448  -0.50215  -0.50215
 Alpha virt. eigenvalues --    0.22468   0.42415   0.64464   0.65436   0.68474
 Alpha virt. eigenvalues --    0.68474   0.69781   0.69781   0.77833   0.77833
 Alpha virt. eigenvalues --    0.86496   0.86522   0.96613   0.96613   1.04418

 Mulliken charges and spin densities:
               1          2
     1  O   -0.092291   0.619930
     2  O    0.092291   1.380070
     3  O    0.092291   1.380070
     4  O   -0.092291   0.619930
 Sum of Mulliken charges =  -0.00000   4.00000

 Dipole moment (field-independent basis, Debye):
    X=              0.0000    Y=              0.0000    Z=             -0.0000  Tot=              0.0000
 Quadrupole moment (field-independent basis, Debye-Ang):
   XX=            -20.1699   YY=            -20.1699   ZZ=            -16.6246
   XY=              0.0000   XZ=             -0.0000   YZ=              0.0000

 3\CCSD=-300.053524\CCSD(T)=-300.1048939\RMSD=9.557e-09\PG=D*H [C*(O1O1
 Normal termination of Gaussian 16 at Sat Jan 14 22:06:58 2023.
