 Gaussian 16, Revision A.03,
 Gaussian 16:  ES64L-G16RevA.03 25-Dec-2016

 ---------------------------------------------------------------
 #p ROCCSD(T)/cc-pVTZ Guess=Read SCF=(VeryTight,CDIIS,VShift=10)
 ---------------------------------------------------------------

 ---------
 O2_O2_145
 ---------
 Symbolic Z-matrix:
 Charge =  0 Multiplicity = 5

                         Standard orientation:
 ---------------------------------------------------------------------
 Center     Atomic      Atomic             Coordinates (Angstroms)
 Number     Number       Type             X           Y           Z
 ---------------------------------------------------------------------
      1          8           0        0.000000    0.000000    2.845570
      2          8           0        0.000000    0.000000    4.197950
      3          8           0        0.000000    0.000000   -4.197950
      4          8           0        0.000000    0.000000   -2.845570
 ---------------------------------------------------------------------

 SCF Done:  E(ROHF) =  -299.202861452     A.U. after    7 cycles
 E2 =    -0.1041592480D+01 EUMP2 =    -0.30024445393224D+03
 CCSD(T)
 CCSD(T)= -0.30021922343D+03

 The electronic state is 5-SGG.
 Alpha  occ. eigenvalues --  -20.77260 -20.77260 -20.77224 -20.77224  -1.60065
 Alpha  occ. eigenvalues --   -1.60065  -1.23500  -1.23500  -0.77566  -0.77566
 Alpha  occ. eigenvalues --   -0.77566  -0.77566  -0.72005  -0.72004  -0.57631
 Alpha  occ. eigenvalues --   -0.57631  -0.57631  -0.57631
 Alpha virt. eigenvalues --    0.24865   0.24897   0.67553   0.67667   0.69017
 Alpha virt. eigenvalues --    0.69017   0.69019   0.69019   0.75089   0.75140
 Alpha virt. eigenvalues --    0.79135   0.79135   0.79138   0.79138   0.88526

 Mulliken charges and spin densities:
               1          2
     1  O   -0.000239   0.999559
     2  O    0.000239   1.000441
     3  O    0.000239   1.000441
     4  O   -0.000239   0.999559
 Sum of Mulliken charges =  -0.00000   4.00000

 Dipole moment (field-independent basis, Debye):
    X=              0.0000    Y=              0.0000    Z=              0.0000  Tot=              0.0000
 Quadrupole moment (field-independent basis, Debye-Ang):
   XX=            -20.3615   YY=            -20.3615   ZZ=            -20.1362
   XY=              0.0000   XZ=              0.0000   YZ=              0.0000

 -300.187956\CCSD=-300.1692317\CCSD(T)=-300.2192234\RMSD=5.887e-09\PG=D
 Normal termination of Gaussian 16 at Sun Jan 15 00:51:48 2023.
