 Gaussian 16, Revision A.03,
 Gaussian 16:  ES64L-G16RevA.03 25-Dec-2016

 ---------------------------------------------------------------
 #p ROCCSD(T)/cc-pVTZ Guess=Read SCF=(VeryTight,CDIIS,VShift=10)
 ---------------------------------------------------------------

 --------
 O2_O2_18
 --------
 Symbolic Z-matrix:
 Charge =  0 Multiplicity = 5

                         Standard orientation:
 ---------------------------------------------------------------------
 Center     Atomic      Atomic             Coordinates (Angstroms)
 Number     Number       Type             X           Y           Z
 ---------------------------------------------------------------------
      1          8           0        0.000000    0.000000    1.047430
      2          8           0        0.000000    0.000000    2.399810
      3          8           0        0.000000    0.000000   -2.399810
      4          8           0        0.000000    0.000000   -1.047430
 ---------------------------------------------------------------------

 SCF Done:  E(ROHF) =  -299.184924559     A.U. after   15 cycles
 E2 =    -0.1043144053D+01 EUMP2 =    -0.30022806861148D+03
 CCSD(T)
 CCSD(T)= -0.30020537784D+03

 The electronic state is 5-SGG.
 Alpha  occ. eigenvalues --  -20.78365 -20.78364 -20.74888 -20.74887  -1.60291
 Alpha  occ. eigenvalues --   -1.59469  -1.25568  -1.21351  -0.77943  -0.77943
 Alpha  occ. eigenvalues --   -0.77013  -0.77013  -0.75646  -0.67673  -0.58333
 Alpha  occ. eigenvalues --   -0.58333  -0.55925  -0.55925
 Alpha virt. eigenvalues --    0.22794   0.32538   0.66272   0.66464   0.66464
 Alpha virt. eigenvalues --    0.68918   0.70256   0.70256   0.74424   0.74424
 Alpha virt. eigenvalues --    0.85804   0.87608   0.90217   0.91726   0.91726

 Mulliken charges and spin densities:
               1          2
     1  O   -0.029266   0.884237
     2  O    0.029266   1.115763
     3  O    0.029266   1.115763
     4  O   -0.029266   0.884237
 Sum of Mulliken charges =  -0.00000   4.00000

 Dipole moment (field-independent basis, Debye):
    X=              0.0000    Y=             -0.0000    Z=             -0.0000  Tot=              0.0000
 Quadrupole moment (field-independent basis, Debye-Ang):
   XX=            -20.3401   YY=            -20.3401   ZZ=            -18.5705
   XY=              0.0000   XZ=              0.0000   YZ=              0.0000

 300.1746275\CCSD=-300.1547903\CCSD(T)=-300.2053778\RMSD=2.123e-09\PG=D
 Normal termination of Gaussian 16 at Sat Jan 14 22:27:57 2023.
