 Gaussian 16, Revision A.03,
 Gaussian 16:  ES64L-G16RevA.03 25-Dec-2016

 ---------------------------------------------------------------
 #p ROCCSD(T)/cc-pVTZ Guess=Read SCF=(VeryTight,CDIIS,VShift=10)
 ---------------------------------------------------------------

 -------
 O2_O2_5
 -------
 Symbolic Z-matrix:
 Charge =  0 Multiplicity = 5

                         Standard orientation:
 ---------------------------------------------------------------------
 Center     Atomic      Atomic             Coordinates (Angstroms)
 Number     Number       Type             X           Y           Z
 ---------------------------------------------------------------------
      1          8           0        0.000000    0.000000    0.863368
      2          8           0        0.000000    0.000000    2.215749
      3          8           0        0.000000    0.000000   -2.215749
      4          8           0        0.000000    0.000000   -0.863368
 ---------------------------------------------------------------------

 SCF Done:  E(ROHF) =  -299.129737531     A.U. after   12 cycles
 E2 =    -0.1023403985D+01 EUMP2 =    -0.30015314151668D+03
 CCSD(T)
 CCSD(T)= -0.30015294032D+03

 The electronic state is 5-SGG.
 Alpha  occ. eigenvalues --  -20.79385 -20.79384 -20.70980 -20.70979  -1.60780
 Alpha  occ. eigenvalues --   -1.58779  -1.28825  -1.18065  -0.78710  -0.78693
 Alpha  occ. eigenvalues --   -0.78693  -0.77077  -0.77077  -0.62122  -0.58913
 Alpha  occ. eigenvalues --   -0.58913  -0.52442  -0.52442
 Alpha virt. eigenvalues --    0.22863   0.38508   0.64539   0.66496   0.68243
 Alpha virt. eigenvalues --    0.68243   0.69885   0.69885   0.76159   0.76159
 Alpha virt. eigenvalues --    0.86962   0.86995   0.95391   0.95391   1.01363

 Mulliken charges and spin densities:
               1          2
     1  O   -0.076363   0.703677
     2  O    0.076363   1.296323
     3  O    0.076363   1.296323
     4  O   -0.076363   0.703677
 Sum of Mulliken charges =  -0.00000   4.00000

 Dipole moment (field-independent basis, Debye):
    X=              0.0000    Y=             -0.0000    Z=              0.0000  Tot=              0.0000
 Quadrupole moment (field-independent basis, Debye-Ang):
   XX=            -20.2518   YY=            -20.2518   ZZ=            -16.9340
   XY=              0.0000   XZ=             -0.0000   YZ=              0.0000

 -300.1193532\CCSD=-300.1020314\CCSD(T)=-300.1529403\RMSD=1.094e-09\PG=
 Normal termination of Gaussian 16 at Sat Jan 14 22:12:44 2023.
