 Gaussian 16, Revision A.03,
 Gaussian 16:  ES64L-G16RevA.03 25-Dec-2016

 ---------------------------------------------------------------
 #p ROCCSD(T)/cc-pVTZ Guess=Read SCF=(VeryTight,CDIIS,VShift=10)
 ---------------------------------------------------------------

 ---------
 O2_O2_127
 ---------
 Symbolic Z-matrix:
 Charge =  0 Multiplicity = 5

                         Standard orientation:
 ---------------------------------------------------------------------
 Center     Atomic      Atomic             Coordinates (Angstroms)
 Number     Number       Type             X           Y           Z
 ---------------------------------------------------------------------
      1          8           0        0.000000    0.000000    2.590716
      2          8           0        0.000000    0.000000    3.943096
      3          8           0        0.000000    0.000000   -3.943096
      4          8           0        0.000000    0.000000   -2.590716
 ---------------------------------------------------------------------

 SCF Done:  E(ROHF) =  -299.202861531     A.U. after    4 cycles
 E2 =    -0.1041615911D+01 EUMP2 =    -0.30024447744174D+03
 CCSD(T)
 CCSD(T)= -0.30021923645D+03

 The electronic state is 5-SGG.
 Alpha  occ. eigenvalues --  -20.77262 -20.77262 -20.77225 -20.77225  -1.60067
 Alpha  occ. eigenvalues --   -1.60067  -1.23502  -1.23501  -0.77568  -0.77568
 Alpha  occ. eigenvalues --   -0.77568  -0.77568  -0.72010  -0.72003  -0.57632
 Alpha  occ. eigenvalues --   -0.57632  -0.57632  -0.57632
 Alpha virt. eigenvalues --    0.24797   0.24960   0.67304   0.67900   0.69012
 Alpha virt. eigenvalues --    0.69012   0.69021   0.69021   0.74968   0.75267
 Alpha virt. eigenvalues --    0.79123   0.79123   0.79148   0.79148   0.88524

 Mulliken charges and spin densities:
               1          2
     1  O   -0.000307   0.999455
     2  O    0.000307   1.000545
     3  O    0.000307   1.000545
     4  O   -0.000307   0.999455
 Sum of Mulliken charges =  -0.00000   4.00000

 Dipole moment (field-independent basis, Debye):
    X=              0.0000    Y=              0.0000    Z=             -0.0000  Tot=              0.0000
 Quadrupole moment (field-independent basis, Debye-Ang):
   XX=            -20.3615   YY=            -20.3615   ZZ=            -20.1317
   XY=              0.0000   XZ=              0.0000   YZ=              0.0000

 Q=-300.1879764\CCSD=-300.169243\CCSD(T)=-300.2192365\RMSD=3.282e-09\PG
 Normal termination of Gaussian 16 at Sun Jan 15 00:31:55 2023.
