 Gaussian 16, Revision A.03,
 Gaussian 16:  ES64L-G16RevA.03 25-Dec-2016

 ---------------------------------------------------------------
 #p ROCCSD(T)/cc-pVTZ Guess=Read SCF=(VeryTight,CDIIS,VShift=10)
 ---------------------------------------------------------------

 ---------
 O2_O2_114
 ---------
 Symbolic Z-matrix:
 Charge =  0 Multiplicity = 5

                         Standard orientation:
 ---------------------------------------------------------------------
 Center     Atomic      Atomic             Coordinates (Angstroms)
 Number     Number       Type             X           Y           Z
 ---------------------------------------------------------------------
      1          8           0        0.000000    0.000000    2.406654
      2          8           0        0.000000    0.000000    3.759034
      3          8           0        0.000000    0.000000   -3.759034
      4          8           0        0.000000    0.000000   -2.406654
 ---------------------------------------------------------------------

 SCF Done:  E(ROHF) =  -299.202863171     A.U. after    7 cycles
 E2 =    -0.1041644564D+01 EUMP2 =    -0.30024450773521D+03
 CCSD(T)
 CCSD(T)= -0.30021925420D+03

 The electronic state is 5-SGG.
 Alpha  occ. eigenvalues --  -20.77265 -20.77265 -20.77225 -20.77225  -1.60068
 Alpha  occ. eigenvalues --   -1.60068  -1.23504  -1.23502  -0.77570  -0.77570
 Alpha  occ. eigenvalues --   -0.77569  -0.77569  -0.72018  -0.71998  -0.57635
 Alpha  occ. eigenvalues --   -0.57635  -0.57632  -0.57632
 Alpha virt. eigenvalues --    0.24652   0.25092   0.66730   0.68384   0.69000
 Alpha virt. eigenvalues --    0.69000   0.69031   0.69031   0.74701   0.75621
 Alpha virt. eigenvalues --    0.79090   0.79090   0.79178   0.79178   0.88523

 Mulliken charges and spin densities:
               1          2
     1  O   -0.000417   0.999267
     2  O    0.000417   1.000733
     3  O    0.000417   1.000733
     4  O   -0.000417   0.999267
 Sum of Mulliken charges =   0.00000   4.00000

 Dipole moment (field-independent basis, Debye):
    X=              0.0000    Y=             -0.0000    Z=              0.0000  Tot=              0.0000
 Quadrupole moment (field-independent basis, Debye-Ang):
   XX=            -20.3615   YY=            -20.3615   ZZ=            -20.1242
   XY=              0.0000   XZ=              0.0000   YZ=              0.0000

 Q=-300.1880028\CCSD=-300.1692586\CCSD(T)=-300.2192542\RMSD=4.633e-09\P
 Normal termination of Gaussian 16 at Sun Jan 15 00:17:36 2023.
