 Gaussian 16, Revision A.03,
 Gaussian 16:  ES64L-G16RevA.03 25-Dec-2016

 ---------------------------------------------------------------
 #p ROCCSD(T)/cc-pVTZ Guess=Read SCF=(VeryTight,CDIIS,VShift=10)
 ---------------------------------------------------------------

 ---------
 O2_O2_171
 ---------
 Symbolic Z-matrix:
 Charge =  0 Multiplicity = 5

                         Standard orientation:
 ---------------------------------------------------------------------
 Center     Atomic      Atomic             Coordinates (Angstroms)
 Number     Number       Type             X           Y           Z
 ---------------------------------------------------------------------
      1          8           0        0.000000    0.000000    3.213693
      2          8           0        0.000000    0.000000    4.566073
      3          8           0        0.000000    0.000000   -4.566073
      4          8           0        0.000000    0.000000   -3.213693
 ---------------------------------------------------------------------

 SCF Done:  E(ROHF) =  -299.202861629     A.U. after    2 cycles
 E2 =    -0.1041575028D+01 EUMP2 =    -0.30024443665673D+03
 CCSD(T)
 CCSD(T)= -0.30021921411D+03

 The electronic state is 5-SGG.
 Alpha  occ. eigenvalues --  -20.77258 -20.77258 -20.77224 -20.77224  -1.60064
 Alpha  occ. eigenvalues --   -1.60064  -1.23499  -1.23499  -0.77565  -0.77565
 Alpha  occ. eigenvalues --   -0.77565  -0.77565  -0.72003  -0.72003  -0.57629
 Alpha  occ. eigenvalues --   -0.57629  -0.57629  -0.57629
 Alpha virt. eigenvalues --    0.24882   0.24884   0.67609   0.67615   0.69019
 Alpha virt. eigenvalues --    0.69019   0.69019   0.69019   0.75115   0.75117
 Alpha virt. eigenvalues --    0.79138   0.79138   0.79138   0.79138   0.88527

 Mulliken charges and spin densities:
               1          2
     1  O   -0.000145   0.999736
     2  O    0.000145   1.000264
     3  O    0.000145   1.000264
     4  O   -0.000145   0.999736
 Sum of Mulliken charges =   0.00000   4.00000

 Dipole moment (field-independent basis, Debye):
    X=              0.0000    Y=              0.0000    Z=              0.0000  Tot=              0.0000
 Quadrupole moment (field-independent basis, Debye-Ang):
   XX=            -20.3615   YY=            -20.3615   ZZ=            -20.1436
   XY=              0.0000   XZ=              0.0000   YZ=              0.0000

 Q=-300.1879409\CCSD=-300.1692236\CCSD(T)=-300.2192141\RMSD=5.966e-09\P
 Normal termination of Gaussian 16 at Sun Jan 15 01:20:51 2023.
