 Gaussian 16, Revision A.03,
 Gaussian 16:  ES64L-G16RevA.03 25-Dec-2016

 ---------------------------------------------------------------
 #p ROCCSD(T)/cc-pVTZ Guess=Read SCF=(VeryTight,CDIIS,VShift=10)
 ---------------------------------------------------------------

 ---------
 O2_O2_102
 ---------
 Symbolic Z-matrix:
 Charge =  0 Multiplicity = 5

                         Standard orientation:
 ---------------------------------------------------------------------
 Center     Atomic      Atomic             Coordinates (Angstroms)
 Number     Number       Type             X           Y           Z
 ---------------------------------------------------------------------
      1          8           0        0.000000    0.000000    2.236751
      2          8           0        0.000000    0.000000    3.589131
      3          8           0        0.000000    0.000000   -3.589131
      4          8           0        0.000000    0.000000   -2.236751
 ---------------------------------------------------------------------

 SCF Done:  E(ROHF) =  -299.202869374     A.U. after    5 cycles
 E2 =    -0.1041688334D+01 EUMP2 =    -0.30024455770848D+03
 CCSD(T)
 CCSD(T)= -0.30021928563D+03

 The electronic state is 5-SGG.
 Alpha  occ. eigenvalues --  -20.77269 -20.77269 -20.77226 -20.77226  -1.60070
 Alpha  occ. eigenvalues --   -1.60070  -1.23508  -1.23502  -0.77573  -0.77573
 Alpha  occ. eigenvalues --   -0.77570  -0.77570  -0.72034  -0.71987  -0.57639
 Alpha  occ. eigenvalues --   -0.57639  -0.57632  -0.57632
 Alpha virt. eigenvalues --    0.24366   0.25334   0.65530   0.68969   0.68969
 Alpha virt. eigenvalues --    0.69058   0.69058   0.69174   0.74227   0.76569
 Alpha virt. eigenvalues --    0.79004   0.79004   0.79262   0.79262   0.88521

 Mulliken charges and spin densities:
               1          2
     1  O   -0.000512   0.999164
     2  O    0.000512   1.000836
     3  O    0.000512   1.000836
     4  O   -0.000512   0.999164
 Sum of Mulliken charges =   0.00000   4.00000

 Dipole moment (field-independent basis, Debye):
    X=              0.0000    Y=             -0.0000    Z=             -0.0000  Tot=              0.0000
 Quadrupole moment (field-independent basis, Debye-Ang):
   XX=            -20.3614   YY=            -20.3614   ZZ=            -20.1183
   XY=              0.0000   XZ=              0.0000   YZ=              0.0000

 Q=-300.1880462\CCSD=-300.1692866\CCSD(T)=-300.2192856\RMSD=9.213e-09\P
 Normal termination of Gaussian 16 at Sun Jan 15 00:04:49 2023.
