 Gaussian 16, Revision A.03,
 Gaussian 16:  ES64L-G16RevA.03 25-Dec-2016

 ---------------------------------------------------------------
 #p ROCCSD(T)/cc-pVTZ Guess=Read SCF=(VeryTight,CDIIS,VShift=10)
 ---------------------------------------------------------------

 ---------
 O2_O2_138
 ---------
 Symbolic Z-matrix:
 Charge =  0 Multiplicity = 5

                         Standard orientation:
 ---------------------------------------------------------------------
 Center     Atomic      Atomic             Coordinates (Angstroms)
 Number     Number       Type             X           Y           Z
 ---------------------------------------------------------------------
      1          8           0        0.000000    0.000000    2.746460
      2          8           0        0.000000    0.000000    4.098840
      3          8           0        0.000000    0.000000   -4.098840
      4          8           0        0.000000    0.000000   -2.746460
 ---------------------------------------------------------------------

 SCF Done:  E(ROHF) =  -299.202861407     A.U. after    7 cycles
 E2 =    -0.1041600010D+01 EUMP2 =    -0.30024446141644D+03
 CCSD(T)
 CCSD(T)= -0.30021922753D+03

 The electronic state is 5-SGG.
 Alpha  occ. eigenvalues --  -20.77261 -20.77261 -20.77224 -20.77224  -1.60066
 Alpha  occ. eigenvalues --   -1.60066  -1.23501  -1.23500  -0.77567  -0.77567
 Alpha  occ. eigenvalues --   -0.77567  -0.77567  -0.72007  -0.72004  -0.57631
 Alpha  occ. eigenvalues --   -0.57631  -0.57631  -0.57631
 Alpha virt. eigenvalues --    0.24849   0.24912   0.67496   0.67721   0.69016
 Alpha virt. eigenvalues --    0.69016   0.69019   0.69019   0.75062   0.75167
 Alpha virt. eigenvalues --    0.79132   0.79132   0.79140   0.79140   0.88525

 Mulliken charges and spin densities:
               1          2
     1  O   -0.000270   0.999505
     2  O    0.000270   1.000495
     3  O    0.000270   1.000495
     4  O   -0.000270   0.999505
 Sum of Mulliken charges =  -0.00000   4.00000

 Dipole moment (field-independent basis, Debye):
    X=              0.0000    Y=             -0.0000    Z=              0.0000  Tot=              0.0000
 Quadrupole moment (field-independent basis, Debye-Ang):
   XX=            -20.3615   YY=            -20.3615   ZZ=            -20.1340
   XY=              0.0000   XZ=              0.0000   YZ=              0.0000

 -300.1879625\CCSD=-300.1692352\CCSD(T)=-300.2192275\RMSD=5.230e-10\PG=
 Normal termination of Gaussian 16 at Sun Jan 15 00:44:10 2023.
