 Gaussian 16, Revision A.03,
 Gaussian 16:  ES64L-G16RevA.03 25-Dec-2016

 ---------------------------------------------------------------
 #p ROCCSD(T)/cc-pVTZ Guess=Read SCF=(VeryTight,CDIIS,VShift=10)
 ---------------------------------------------------------------

 ---------
 O2_O2_134
 ---------
 Symbolic Z-matrix:
 Charge =  0 Multiplicity = 5

                         Standard orientation:
 ---------------------------------------------------------------------
 Center     Atomic      Atomic             Coordinates (Angstroms)
 Number     Number       Type             X           Y           Z
 ---------------------------------------------------------------------
      1          8           0        0.000000    0.000000    2.689826
      2          8           0        0.000000    0.000000    4.042206
      3          8           0        0.000000    0.000000   -4.042206
      4          8           0        0.000000    0.000000   -2.689826
 ---------------------------------------------------------------------

 SCF Done:  E(ROHF) =  -299.202861406     A.U. after    4 cycles
 E2 =    -0.1041605135D+01 EUMP2 =    -0.30024446654066D+03
 CCSD(T)
 CCSD(T)= -0.30021923035D+03

 The electronic state is 5-SGG.
 Alpha  occ. eigenvalues --  -20.77261 -20.77261 -20.77224 -20.77224  -1.60066
 Alpha  occ. eigenvalues --   -1.60066  -1.23501  -1.23501  -0.77567  -0.77567
 Alpha  occ. eigenvalues --   -0.77567  -0.77567  -0.72007  -0.72004  -0.57632
 Alpha  occ. eigenvalues --   -0.57632  -0.57631  -0.57631
 Alpha virt. eigenvalues --    0.24835   0.24925   0.67445   0.67769   0.69015
 Alpha virt. eigenvalues --    0.69015   0.69019   0.69019   0.75037   0.75192
 Alpha virt. eigenvalues --    0.79130   0.79130   0.79142   0.79142   0.88525

 Mulliken charges and spin densities:
               1          2
     1  O   -0.000283   0.999486
     2  O    0.000283   1.000514
     3  O    0.000283   1.000514
     4  O   -0.000283   0.999486
 Sum of Mulliken charges =  -0.00000   4.00000

 Dipole moment (field-independent basis, Debye):
    X=              0.0000    Y=              0.0000    Z=              0.0000  Tot=              0.0000
 Quadrupole moment (field-independent basis, Debye-Ang):
   XX=            -20.3615   YY=            -20.3615   ZZ=            -20.1332
   XY=              0.0000   XZ=              0.0000   YZ=              0.0000

 Q=-300.1879669\CCSD=-300.1692377\CCSD(T)=-300.2192304\RMSD=5.876e-09\P
 Normal termination of Gaussian 16 at Sun Jan 15 00:39:30 2023.
