 Gaussian 16, Revision A.03,
 Gaussian 16:  ES64L-G16RevA.03 25-Dec-2016

 ---------------------------------------------------------------
 #p ROCCSD(T)/cc-pVTZ Guess=Read SCF=(VeryTight,CDIIS,VShift=10)
 ---------------------------------------------------------------

 ---------
 O2_O2_125
 ---------
 Symbolic Z-matrix:
 Charge =  0 Multiplicity = 5

                         Standard orientation:
 ---------------------------------------------------------------------
 Center     Atomic      Atomic             Coordinates (Angstroms)
 Number     Number       Type             X           Y           Z
 ---------------------------------------------------------------------
      1          8           0        0.000000    0.000000    2.562398
      2          8           0        0.000000    0.000000    3.914778
      3          8           0        0.000000    0.000000   -3.914778
      4          8           0        0.000000    0.000000   -2.562398
 ---------------------------------------------------------------------

 SCF Done:  E(ROHF) =  -299.202861622     A.U. after    5 cycles
 E2 =    -0.1041619464D+01 EUMP2 =    -0.30024448108663D+03
 CCSD(T)
 CCSD(T)= -0.30021923854D+03

 The electronic state is 5-SGG.
 Alpha  occ. eigenvalues --  -20.77263 -20.77263 -20.77224 -20.77224  -1.60067
 Alpha  occ. eigenvalues --   -1.60067  -1.23502  -1.23501  -0.77568  -0.77568
 Alpha  occ. eigenvalues --   -0.77568  -0.77568  -0.72011  -0.72003  -0.57633
 Alpha  occ. eigenvalues --   -0.57633  -0.57632  -0.57632
 Alpha virt. eigenvalues --    0.24782   0.24974   0.67247   0.67951   0.69011
 Alpha virt. eigenvalues --    0.69011   0.69022   0.69022   0.74941   0.75299
 Alpha virt. eigenvalues --    0.79120   0.79120   0.79150   0.79150   0.88524

 Mulliken charges and spin densities:
               1          2
     1  O   -0.000343   0.999378
     2  O    0.000343   1.000622
     3  O    0.000343   1.000622
     4  O   -0.000343   0.999378
 Sum of Mulliken charges =  -0.00000   4.00000

 Dipole moment (field-independent basis, Debye):
    X=              0.0000    Y=              0.0000    Z=              0.0000  Tot=              0.0000
 Quadrupole moment (field-independent basis, Debye-Ang):
   XX=            -20.3615   YY=            -20.3615   ZZ=            -20.1290
   XY=              0.0000   XZ=              0.0000   YZ=              0.0000

 Q=-300.1879796\CCSD=-300.1692448\CCSD(T)=-300.2192385\RMSD=9.205e-09\P
 Normal termination of Gaussian 16 at Sun Jan 15 00:29:45 2023.
