 Gaussian 16, Revision A.03,
 Gaussian 16:  ES64L-G16RevA.03 25-Dec-2016

 ---------------------------------------------------------------
 #p ROCCSD(T)/cc-pVTZ Guess=Read SCF=(VeryTight,CDIIS,VShift=10)
 ---------------------------------------------------------------

 ---------
 O2_O2_103
 ---------
 Symbolic Z-matrix:
 Charge =  0 Multiplicity = 5

                         Standard orientation:
 ---------------------------------------------------------------------
 Center     Atomic      Atomic             Coordinates (Angstroms)
 Number     Number       Type             X           Y           Z
 ---------------------------------------------------------------------
      1          8           0        0.000000    0.000000    2.250910
      2          8           0        0.000000    0.000000    3.603290
      3          8           0        0.000000    0.000000   -3.603290
      4          8           0        0.000000    0.000000   -2.250910
 ---------------------------------------------------------------------

 SCF Done:  E(ROHF) =  -299.202868579     A.U. after    8 cycles
 E2 =    -0.1041683724D+01 EUMP2 =    -0.30024455230366D+03
 CCSD(T)
 CCSD(T)= -0.30021928214D+03

 The electronic state is 5-SGG.
 Alpha  occ. eigenvalues --  -20.77268 -20.77268 -20.77226 -20.77226  -1.60070
 Alpha  occ. eigenvalues --   -1.60070  -1.23508  -1.23502  -0.77572  -0.77572
 Alpha  occ. eigenvalues --   -0.77570  -0.77570  -0.72032  -0.71988  -0.57639
 Alpha  occ. eigenvalues --   -0.57639  -0.57632  -0.57632
 Alpha virt. eigenvalues --    0.24398   0.25308   0.65665   0.68973   0.68973
 Alpha virt. eigenvalues --    0.69055   0.69055   0.69098   0.74275   0.76449
 Alpha virt. eigenvalues --    0.79015   0.79015   0.79251   0.79251   0.88521

 Mulliken charges and spin densities:
               1          2
     1  O   -0.000504   0.999169
     2  O    0.000504   1.000831
     3  O    0.000504   1.000831
     4  O   -0.000504   0.999169
 Sum of Mulliken charges =  -0.00000   4.00000

 Dipole moment (field-independent basis, Debye):
    X=              0.0000    Y=             -0.0000    Z=             -0.0000  Tot=              0.0000
 Quadrupole moment (field-independent basis, Debye-Ang):
   XX=            -20.3614   YY=            -20.3614   ZZ=            -20.1188
   XY=              0.0000   XZ=              0.0000   YZ=              0.0000

 Q=-300.1880416\CCSD=-300.1692835\CCSD(T)=-300.2192821\RMSD=1.882e-09\P
 Normal termination of Gaussian 16 at Sun Jan 15 00:05:55 2023.
