 Gaussian 16, Revision A.03,
 Gaussian 16:  ES64L-G16RevA.03 25-Dec-2016

 ---------------------------------------------------------------
 #p ROCCSD(T)/cc-pVTZ Guess=Read SCF=(VeryTight,CDIIS,VShift=10)
 ---------------------------------------------------------------

 ---------
 O2_O2_112
 ---------
 Symbolic Z-matrix:
 Charge =  0 Multiplicity = 5

                         Standard orientation:
 ---------------------------------------------------------------------
 Center     Atomic      Atomic             Coordinates (Angstroms)
 Number     Number       Type             X           Y           Z
 ---------------------------------------------------------------------
      1          8           0        0.000000    0.000000    2.378337
      2          8           0        0.000000    0.000000    3.730717
      3          8           0        0.000000    0.000000   -3.730717
      4          8           0        0.000000    0.000000   -2.378337
 ---------------------------------------------------------------------

 SCF Done:  E(ROHF) =  -299.202863770     A.U. after    5 cycles
 E2 =    -0.1041650391D+01 EUMP2 =    -0.30024451416083D+03
 CCSD(T)
 CCSD(T)= -0.30021925811D+03

 The electronic state is 5-SGG.
 Alpha  occ. eigenvalues --  -20.77266 -20.77266 -20.77225 -20.77225  -1.60068
 Alpha  occ. eigenvalues --   -1.60068  -1.23505  -1.23502  -0.77570  -0.77570
 Alpha  occ. eigenvalues --   -0.77569  -0.77569  -0.72020  -0.71997  -0.57635
 Alpha  occ. eigenvalues --   -0.57635  -0.57632  -0.57632
 Alpha virt. eigenvalues --    0.24616   0.25123   0.66586   0.68494   0.68997
 Alpha virt. eigenvalues --    0.68997   0.69034   0.69034   0.74638   0.75721
 Alpha virt. eigenvalues --    0.79080   0.79080   0.79187   0.79187   0.88523

 Mulliken charges and spin densities:
               1          2
     1  O   -0.000430   0.999251
     2  O    0.000430   1.000749
     3  O    0.000430   1.000749
     4  O   -0.000430   0.999251
 Sum of Mulliken charges =  -0.00000   4.00000

 Dipole moment (field-independent basis, Debye):
    X=              0.0000    Y=              0.0000    Z=             -0.0000  Tot=              0.0000
 Quadrupole moment (field-independent basis, Debye-Ang):
   XX=            -20.3615   YY=            -20.3615   ZZ=            -20.1234
   XY=              0.0000   XZ=              0.0000   YZ=              0.0000

 Q=-300.1880084\CCSD=-300.1692621\CCSD(T)=-300.2192581\RMSD=6.526e-09\P
 Normal termination of Gaussian 16 at Sun Jan 15 00:15:29 2023.
