 Gaussian 16, Revision A.03,
 Gaussian 16:  ES64L-G16RevA.03 25-Dec-2016

 ---------------------------------------------------------------
 #p ROCCSD(T)/cc-pVTZ Guess=Read SCF=(VeryTight,CDIIS,VShift=10)
 ---------------------------------------------------------------

 --------
 O2_O2_21
 --------
 Symbolic Z-matrix:
 Charge =  0 Multiplicity = 5

                         Standard orientation:
 ---------------------------------------------------------------------
 Center     Atomic      Atomic             Coordinates (Angstroms)
 Number     Number       Type             X           Y           Z
 ---------------------------------------------------------------------
      1          8           0        0.000000    0.000000    1.089906
      2          8           0        0.000000    0.000000    2.442286
      3          8           0        0.000000    0.000000   -2.442286
      4          8           0        0.000000    0.000000   -1.089906
 ---------------------------------------------------------------------

 SCF Done:  E(ROHF) =  -299.190082029     A.U. after   12 cycles
 E2 =    -0.1044141197D+01 EUMP2 =    -0.30023422322672D+03
 CCSD(T)
 CCSD(T)= -0.30020994115D+03

 The electronic state is 5-SGG.
 Alpha  occ. eigenvalues --  -20.78135 -20.78134 -20.75456 -20.75455  -1.60250
 Alpha  occ. eigenvalues --   -1.59589  -1.25175  -1.21787  -0.77872  -0.77872
 Alpha  occ. eigenvalues --   -0.77073  -0.77073  -0.75138  -0.68421  -0.58253
 Alpha  occ. eigenvalues --   -0.58253  -0.56324  -0.56324
 Alpha virt. eigenvalues --    0.22718   0.31740   0.66144   0.66144   0.66677
 Alpha virt. eigenvalues --    0.69411   0.70303   0.70303   0.74417   0.74417
 Alpha virt. eigenvalues --    0.83331   0.87697   0.89172   0.90859   0.90859

 Mulliken charges and spin densities:
               1          2
     1  O   -0.022065   0.911369
     2  O    0.022065   1.088631
     3  O    0.022065   1.088631
     4  O   -0.022065   0.911369
 Sum of Mulliken charges =   0.00000   4.00000

 Dipole moment (field-independent basis, Debye):
    X=              0.0000    Y=              0.0000    Z=              0.0000  Tot=              0.0000
 Quadrupole moment (field-independent basis, Debye-Ang):
   XX=            -20.3474   YY=            -20.3474   ZZ=            -18.8942
   XY=              0.0000   XZ=              0.0000   YZ=              0.0000

 300.1792506\CCSD=-300.1594236\CCSD(T)=-300.2099411\RMSD=9.168e-09\PG=D
 Normal termination of Gaussian 16 at Sat Jan 14 22:31:19 2023.
