 Gaussian 16, Revision A.03,
 Gaussian 16:  ES64L-G16RevA.03 25-Dec-2016

 ---------------------------------------------------------------
 #p ROCCSD(T)/cc-pVTZ Guess=Read SCF=(VeryTight,CDIIS,VShift=10)
 ---------------------------------------------------------------

 ---------
 O2_O2_120
 ---------
 Symbolic Z-matrix:
 Charge =  0 Multiplicity = 5

                         Standard orientation:
 ---------------------------------------------------------------------
 Center     Atomic      Atomic             Coordinates (Angstroms)
 Number     Number       Type             X           Y           Z
 ---------------------------------------------------------------------
      1          8           0        0.000000    0.000000    2.491606
      2          8           0        0.000000    0.000000    3.843986
      3          8           0        0.000000    0.000000   -3.843986
      4          8           0        0.000000    0.000000   -2.491606
 ---------------------------------------------------------------------

 SCF Done:  E(ROHF) =  -299.202862047     A.U. after    7 cycles
 E2 =    -0.1041629604D+01 EUMP2 =    -0.30024449165193D+03
 CCSD(T)
 CCSD(T)= -0.30021924465D+03

 The electronic state is 5-SGG.
 Alpha  occ. eigenvalues --  -20.77264 -20.77264 -20.77225 -20.77225  -1.60067
 Alpha  occ. eigenvalues --   -1.60067  -1.23503  -1.23502  -0.77569  -0.77569
 Alpha  occ. eigenvalues --   -0.77568  -0.77568  -0.72013  -0.72001  -0.57634
 Alpha  occ. eigenvalues --   -0.57634  -0.57632  -0.57632
 Alpha virt. eigenvalues --    0.24734   0.25017   0.67061   0.68114   0.69008
 Alpha virt. eigenvalues --    0.69008   0.69025   0.69025   0.74852   0.75409
 Alpha virt. eigenvalues --    0.79110   0.79110   0.79160   0.79160   0.88523

 Mulliken charges and spin densities:
               1          2
     1  O   -0.000376   0.999324
     2  O    0.000376   1.000676
     3  O    0.000376   1.000676
     4  O   -0.000376   0.999324
 Sum of Mulliken charges =  -0.00000   4.00000

 Dipole moment (field-independent basis, Debye):
    X=              0.0000    Y=              0.0000    Z=              0.0000  Tot=              0.0000
 Quadrupole moment (field-independent basis, Debye-Ang):
   XX=            -20.3615   YY=            -20.3615   ZZ=            -20.1268
   XY=              0.0000   XZ=              0.0000   YZ=              0.0000

 -300.1879888\CCSD=-300.1692502\CCSD(T)=-300.2192447\RMSD=4.467e-09\PG=
 Normal termination of Gaussian 16 at Sun Jan 15 00:24:04 2023.
