 Gaussian 16, Revision A.03,
 Gaussian 16:  ES64L-G16RevA.03 25-Dec-2016

 ---------------------------------------------------------------
 #p ROCCSD(T)/cc-pVTZ Guess=Read SCF=(VeryTight,CDIIS,VShift=10)
 ---------------------------------------------------------------

 --------
 O2_O2_94
 --------
 Symbolic Z-matrix:
 Charge =  0 Multiplicity = 5

                         Standard orientation:
 ---------------------------------------------------------------------
 Center     Atomic      Atomic             Coordinates (Angstroms)
 Number     Number       Type             X           Y           Z
 ---------------------------------------------------------------------
      1          8           0        0.000000    0.000000    2.123482
      2          8           0        0.000000    0.000000    3.475862
      3          8           0        0.000000    0.000000   -3.475862
      4          8           0        0.000000    0.000000   -2.123482
 ---------------------------------------------------------------------

 SCF Done:  E(ROHF) =  -299.202877734     A.U. after    4 cycles
 E2 =    -0.1041734398D+01 EUMP2 =    -0.30024461213257D+03
 CCSD(T)
 CCSD(T)= -0.30021932117D+03

 The electronic state is 5-SGG.
 Alpha  occ. eigenvalues --  -20.77273 -20.77273 -20.77227 -20.77227  -1.60073
 Alpha  occ. eigenvalues --   -1.60071  -1.23514  -1.23501  -0.77576  -0.77576
 Alpha  occ. eigenvalues --   -0.77571  -0.77571  -0.72053  -0.71971  -0.57644
 Alpha  occ. eigenvalues --   -0.57644  -0.57631  -0.57631
 Alpha virt. eigenvalues --    0.24058   0.25576   0.64187   0.68925   0.68925
 Alpha virt. eigenvalues --    0.69097   0.69097   0.69775   0.73811   0.77956
 Alpha virt. eigenvalues --    0.78886   0.78886   0.79380   0.79380   0.88514

 Mulliken charges and spin densities:
               1          2
     1  O   -0.000638   0.998993
     2  O    0.000638   1.001007
     3  O    0.000638   1.001007
     4  O   -0.000638   0.998993
 Sum of Mulliken charges =  -0.00000   4.00000

 Dipole moment (field-independent basis, Debye):
    X=              0.0000    Y=             -0.0000    Z=              0.0000  Tot=              0.0000
 Quadrupole moment (field-independent basis, Debye-Ang):
   XX=            -20.3614   YY=            -20.3614   ZZ=            -20.1104
   XY=              0.0000   XZ=              0.0000   YZ=              0.0000

 =-300.1880932\CCSD=-300.1693182\CCSD(T)=-300.2193212\RMSD=4.601e-09\PG
 Normal termination of Gaussian 16 at Sat Jan 14 23:55:16 2023.
