 Gaussian 16, Revision A.03,
 Gaussian 16:  ES64L-G16RevA.03 25-Dec-2016

 ---------------------------------------------------------------
 #p ROCCSD(T)/cc-pVTZ Guess=Read SCF=(VeryTight,CDIIS,VShift=10)
 ---------------------------------------------------------------

 --------
 O2_O2_15
 --------
 Symbolic Z-matrix:
 Charge =  0 Multiplicity = 5

                         Standard orientation:
 ---------------------------------------------------------------------
 Center     Atomic      Atomic             Coordinates (Angstroms)
 Number     Number       Type             X           Y           Z
 ---------------------------------------------------------------------
      1          8           0        0.000000    0.000000    1.004954
      2          8           0        0.000000    0.000000    2.357334
      3          8           0        0.000000    0.000000   -2.357334
      4          8           0        0.000000    0.000000   -1.004954
 ---------------------------------------------------------------------

 SCF Done:  E(ROHF) =  -299.177823246     A.U. after   13 cycles
 E2 =    -0.1041165151D+01 EUMP2 =    -0.30021898839720D+03
 CCSD(T)
 CCSD(T)= -0.30019893205D+03

 The electronic state is 5-SGG.
 Alpha  occ. eigenvalues --  -20.78623 -20.78623 -20.74188 -20.74186  -1.60348
 Alpha  occ. eigenvalues --   -1.59333  -1.26056  -1.20812  -0.78044  -0.78044
 Alpha  occ. eigenvalues --   -0.76974  -0.76974  -0.76223  -0.66767  -0.58419
 Alpha  occ. eigenvalues --   -0.58419  -0.55400  -0.55400
 Alpha virt. eigenvalues --    0.22863   0.33504   0.65842   0.66882   0.66882
 Alpha virt. eigenvalues --    0.68394   0.70188   0.70188   0.74526   0.74526
 Alpha virt. eigenvalues --    0.86894   0.87510   0.92535   0.92595   0.92595

 Mulliken charges and spin densities:
               1          2
     1  O   -0.038296   0.851130
     2  O    0.038296   1.148870
     3  O    0.038296   1.148870
     4  O   -0.038296   0.851130
 Sum of Mulliken charges =  -0.00000   4.00000

 Dipole moment (field-independent basis, Debye):
    X=              0.0000    Y=              0.0000    Z=              0.0000  Tot=              0.0000
 Quadrupole moment (field-independent basis, Debye-Ang):
   XX=            -20.3296   YY=            -20.3296   ZZ=            -18.1996
   XY=              0.0000   XZ=             -0.0000   YZ=              0.0000

 =-300.1680054\CCSD=-300.1482778\CCSD(T)=-300.1989321\RMSD=7.406e-09\PG
 Normal termination of Gaussian 16 at Sat Jan 14 22:24:30 2023.
