 Gaussian 16, Revision A.03,
 Gaussian 16:  ES64L-G16RevA.03 25-Dec-2016

 ---------------------------------------------------------------
 #p ROCCSD(T)/cc-pVTZ Guess=Read SCF=(VeryTight,CDIIS,VShift=10)
 ---------------------------------------------------------------

 --------
 O2_O2_82
 --------
 Symbolic Z-matrix:
 Charge =  0 Multiplicity = 5

                         Standard orientation:
 ---------------------------------------------------------------------
 Center     Atomic      Atomic             Coordinates (Angstroms)
 Number     Number       Type             X           Y           Z
 ---------------------------------------------------------------------
      1          8           0        0.000000    0.000000    1.953579
      2          8           0        0.000000    0.000000    3.305959
      3          8           0        0.000000    0.000000   -3.305959
      4          8           0        0.000000    0.000000   -1.953579
 ---------------------------------------------------------------------

 SCF Done:  E(ROHF) =  -299.202891990     A.U. after    5 cycles
 E2 =    -0.1041849843D+01 EUMP2 =    -0.30024474183364D+03
 CCSD(T)
 CCSD(T)= -0.30021940741D+03

 The electronic state is 5-SGG.
 Alpha  occ. eigenvalues --  -20.77280 -20.77280 -20.77229 -20.77229  -1.60078
 Alpha  occ. eigenvalues --   -1.60074  -1.23528  -1.23494  -0.77584  -0.77584
 Alpha  occ. eigenvalues --   -0.77571  -0.77571  -0.72103  -0.71928  -0.57658
 Alpha  occ. eigenvalues --   -0.57658  -0.57626  -0.57626
 Alpha virt. eigenvalues --    0.23405   0.26060   0.61451   0.68789   0.68789
 Alpha virt. eigenvalues --    0.69208   0.69208   0.70400   0.73174   0.78543
 Alpha virt. eigenvalues --    0.78543   0.79744   0.79744   0.82047   0.88493

 Mulliken charges and spin densities:
               1          2
     1  O   -0.000880   0.998719
     2  O    0.000880   1.001281
     3  O    0.000880   1.001281
     4  O   -0.000880   0.998719
 Sum of Mulliken charges =  -0.00000   4.00000

 Dipole moment (field-independent basis, Debye):
    X=              0.0000    Y=              0.0000    Z=              0.0000  Tot=              0.0000
 Quadrupole moment (field-independent basis, Debye-Ang):
   XX=            -20.3614   YY=            -20.3614   ZZ=            -20.0981
   XY=              0.0000   XZ=              0.0000   YZ=              0.0000

 300.1882032\CCSD=-300.169394\CCSD(T)=-300.2194074\RMSD=8.426e-09\PG=D*
 Normal termination of Gaussian 16 at Sat Jan 14 23:42:18 2023.
