 Gaussian 16, Revision A.03,
 Gaussian 16:  ES64L-G16RevA.03 25-Dec-2016

 ---------------------------------------------------------------
 #p ROCCSD(T)/cc-pVTZ Guess=Read SCF=(VeryTight,CDIIS,VShift=10)
 ---------------------------------------------------------------

 --------
 O2_O2_86
 --------
 Symbolic Z-matrix:
 Charge =  0 Multiplicity = 5

                         Standard orientation:
 ---------------------------------------------------------------------
 Center     Atomic      Atomic             Coordinates (Angstroms)
 Number     Number       Type             X           Y           Z
 ---------------------------------------------------------------------
      1          8           0        0.000000    0.000000    2.010214
      2          8           0        0.000000    0.000000    3.362594
      3          8           0        0.000000    0.000000   -3.362594
      4          8           0        0.000000    0.000000   -2.010214
 ---------------------------------------------------------------------

 SCF Done:  E(ROHF) =  -299.202887971     A.U. after    7 cycles
 E2 =    -0.1041803322D+01 EUMP2 =    -0.30024469129310D+03
 CCSD(T)
 CCSD(T)= -0.30021937393D+03

 The electronic state is 5-SGG.
 Alpha  occ. eigenvalues --  -20.77278 -20.77278 -20.77228 -20.77228  -1.60076
 Alpha  occ. eigenvalues --   -1.60073  -1.23522  -1.23497  -0.77581  -0.77581
 Alpha  occ. eigenvalues --   -0.77571  -0.77571  -0.72082  -0.71946  -0.57652
 Alpha  occ. eigenvalues --   -0.57652  -0.57629  -0.57629
 Alpha virt. eigenvalues --    0.23644   0.25884   0.62418   0.68847   0.68847
 Alpha virt. eigenvalues --    0.69162   0.69162   0.70249   0.73378   0.78686
 Alpha virt. eigenvalues --    0.78686   0.79590   0.79590   0.80365   0.88502

 Mulliken charges and spin densities:
               1          2
     1  O   -0.000798   0.998793
     2  O    0.000798   1.001207
     3  O    0.000798   1.001207
     4  O   -0.000798   0.998793
 Sum of Mulliken charges =   0.00000   4.00000

 Dipole moment (field-independent basis, Debye):
    X=              0.0000    Y=              0.0000    Z=              0.0000  Tot=              0.0000
 Quadrupole moment (field-independent basis, Debye-Ang):
   XX=            -20.3614   YY=            -20.3614   ZZ=            -20.1016
   XY=              0.0000   XZ=              0.0000   YZ=              0.0000

 300.1881606\CCSD=-300.1693648\CCSD(T)=-300.2193739\RMSD=8.171e-09\PG=D
 Normal termination of Gaussian 16 at Sat Jan 14 23:46:43 2023.
