 Gaussian 16, Revision A.03,
 Gaussian 16:  ES64L-G16RevA.03 25-Dec-2016

 ---------------------------------------------------------------
 #p ROCCSD(T)/cc-pVTZ Guess=Read SCF=(VeryTight,CDIIS,VShift=10)
 ---------------------------------------------------------------

 --------
 O2_O2_17
 --------
 Symbolic Z-matrix:
 Charge =  0 Multiplicity = 5

                         Standard orientation:
 ---------------------------------------------------------------------
 Center     Atomic      Atomic             Coordinates (Angstroms)
 Number     Number       Type             X           Y           Z
 ---------------------------------------------------------------------
      1          8           0        0.000000    0.000000    1.033272
      2          8           0        0.000000    0.000000    2.385652
      3          8           0        0.000000    0.000000   -2.385652
      4          8           0        0.000000    0.000000   -1.033272
 ---------------------------------------------------------------------

 SCF Done:  E(ROHF) =  -299.182803205     A.U. after   13 cycles
 E2 =    -0.1042612494D+01 EUMP2 =    -0.30022541569917D+03
 CCSD(T)
 CCSD(T)= -0.30020346925D+03

 The electronic state is 5-SGG.
 Alpha  occ. eigenvalues --  -20.78448 -20.78448 -20.74669 -20.74668  -1.60308
 Alpha  occ. eigenvalues --   -1.59425  -1.25719  -1.21184  -0.77973  -0.77973
 Alpha  occ. eigenvalues --   -0.76997  -0.76997  -0.75831  -0.67390  -0.58361
 Alpha  occ. eigenvalues --   -0.58361  -0.55765  -0.55765
 Alpha virt. eigenvalues --    0.22818   0.32839   0.66131   0.66595   0.66595
 Alpha virt. eigenvalues --    0.68746   0.70235   0.70235   0.74445   0.74445
 Alpha virt. eigenvalues --    0.86315   0.87577   0.90862   0.92016   0.92016

 Mulliken charges and spin densities:
               1          2
     1  O   -0.032074   0.873872
     2  O    0.032074   1.126128
     3  O    0.032074   1.126128
     4  O   -0.032074   0.873872
 Sum of Mulliken charges =  -0.00000   4.00000

 Dipole moment (field-independent basis, Debye):
    X=              0.0000    Y=              0.0000    Z=              0.0000  Tot=              0.0000
 Quadrupole moment (field-independent basis, Debye-Ang):
   XX=            -20.3370   YY=            -20.3370   ZZ=            -18.4515
   XY=              0.0000   XZ=              0.0000   YZ=              0.0000

 =-300.1726765\CCSD=-300.1528589\CCSD(T)=-300.2034692\RMSD=2.718e-09\PG
 Normal termination of Gaussian 16 at Sat Jan 14 22:26:49 2023.
