 Gaussian 16, Revision A.03,
 Gaussian 16:  ES64L-G16RevA.03 25-Dec-2016

 ---------------------------------------------------------------
 #p ROCCSD(T)/cc-pVTZ Guess=Read SCF=(VeryTight,CDIIS,VShift=10)
 ---------------------------------------------------------------

 --------
 O2_O2_16
 --------
 Symbolic Z-matrix:
 Charge =  0 Multiplicity = 5

                         Standard orientation:
 ---------------------------------------------------------------------
 Center     Atomic      Atomic             Coordinates (Angstroms)
 Number     Number       Type             X           Y           Z
 ---------------------------------------------------------------------
      1          8           0        0.000000    0.000000    1.019113
      2          8           0        0.000000    0.000000    2.371493
      3          8           0        0.000000    0.000000   -2.371493
      4          8           0        0.000000    0.000000   -1.019113
 ---------------------------------------------------------------------

 SCF Done:  E(ROHF) =  -299.180444473     A.U. after   15 cycles
 E2 =    -0.1041957629D+01 EUMP2 =    -0.30022240210275D+03
 CCSD(T)
 CCSD(T)= -0.30020132940D+03

 The electronic state is 5-SGG.
 Alpha  occ. eigenvalues --  -20.78535 -20.78535 -20.74436 -20.74435  -1.60326
 Alpha  occ. eigenvalues --   -1.59380  -1.25881  -1.21004  -0.78006  -0.78006
 Alpha  occ. eigenvalues --   -0.76984  -0.76984  -0.76023  -0.67088  -0.58389
 Alpha  occ. eigenvalues --   -0.58389  -0.55591  -0.55591
 Alpha virt. eigenvalues --    0.22841   0.33161   0.65988   0.66734   0.66734
 Alpha virt. eigenvalues --    0.68572   0.70213   0.70213   0.74479   0.74479
 Alpha virt. eigenvalues --    0.86666   0.87544   0.91649   0.92305   0.92305

 Mulliken charges and spin densities:
               1          2
     1  O   -0.035086   0.862834
     2  O    0.035086   1.137166
     3  O    0.035086   1.137166
     4  O   -0.035086   0.862834
 Sum of Mulliken charges =  -0.00000   4.00000

 Dipole moment (field-independent basis, Debye):
    X=              0.0000    Y=             -0.0000    Z=             -0.0000  Tot=              0.0000
 Quadrupole moment (field-independent basis, Debye-Ang):
   XX=            -20.3335   YY=            -20.3335   ZZ=            -18.3277
   XY=              0.0000   XZ=             -0.0000   YZ=              0.0000

 =-300.1704788\CCSD=-300.1506968\CCSD(T)=-300.2013294\RMSD=1.301e-09\PG
 Normal termination of Gaussian 16 at Sat Jan 14 22:25:40 2023.
