 Gaussian 16, Revision A.03,
 Gaussian 16:  ES64L-G16RevA.03 25-Dec-2016

 ---------------------------------------------------------------
 #p ROCCSD(T)/cc-pVTZ Guess=Read SCF=(VeryTight,CDIIS,VShift=10)
 ---------------------------------------------------------------

 -------
 O2_O2_2
 -------
 Symbolic Z-matrix:
 Charge =  0 Multiplicity = 5

                         Standard orientation:
 ---------------------------------------------------------------------
 Center     Atomic      Atomic             Coordinates (Angstroms)
 Number     Number       Type             X           Y           Z
 ---------------------------------------------------------------------
      1          8           0        0.000000    0.000000    0.820892
      2          8           0        0.000000    0.000000    2.173273
      3          8           0        0.000000    0.000000   -2.173273
      4          8           0        0.000000    0.000000   -0.820892
 ---------------------------------------------------------------------

 SCF Done:  E(ROHF) =  -299.103363817     A.U. after   11 cycles
 E2 =    -0.1014637149D+01 EUMP2 =    -0.30011800096628D+03
 CCSD(T)
 CCSD(T)= -0.30012692549D+03

 The electronic state is 5-SGG.
 Alpha  occ. eigenvalues --  -20.79441 -20.79440 -20.69869 -20.69868  -1.61050
 Alpha  occ. eigenvalues --   -1.58568  -1.30225  -1.16921  -0.79638  -0.78985
 Alpha  occ. eigenvalues --   -0.78985  -0.77139  -0.77139  -0.60055  -0.59256
 Alpha  occ. eigenvalues --   -0.59256  -0.51162  -0.51162
 Alpha virt. eigenvalues --    0.22682   0.40725   0.64396   0.65870   0.68424
 Alpha virt. eigenvalues --    0.68424   0.69812   0.69812   0.77118   0.77118
 Alpha virt. eigenvalues --    0.86709   0.86734   0.96146   0.96146   1.03319

 Mulliken charges and spin densities:
               1          2
     1  O   -0.086685   0.653350
     2  O    0.086685   1.346650
     3  O    0.086685   1.346650
     4  O   -0.086685   0.653350
 Sum of Mulliken charges =  -0.00000   4.00000

 Dipole moment (field-independent basis, Debye):
    X=              0.0000    Y=             -0.0000    Z=             -0.0000  Tot=              0.0000
 Quadrupole moment (field-independent basis, Debye-Ang):
   XX=            -20.2075   YY=            -20.2075   ZZ=            -16.6993
   XY=              0.0000   XZ=             -0.0000   YZ=              0.0000

 00.0914522\CCSD=-300.075807\CCSD(T)=-300.1269255\RMSD=4.599e-09\PG=D*H
 Normal termination of Gaussian 16 at Sat Jan 14 22:09:17 2023.
