 Gaussian 16, Revision A.03,
 Gaussian 16:  ES64L-G16RevA.03 25-Dec-2016

 ---------------------------------------------------------------
 #p ROCCSD(T)/cc-pVTZ Guess=Read SCF=(VeryTight,CDIIS,VShift=10)
 ---------------------------------------------------------------

 --------
 O2_O2_83
 --------
 Symbolic Z-matrix:
 Charge =  0 Multiplicity = 5

                         Standard orientation:
 ---------------------------------------------------------------------
 Center     Atomic      Atomic             Coordinates (Angstroms)
 Number     Number       Type             X           Y           Z
 ---------------------------------------------------------------------
      1          8           0        0.000000    0.000000    1.967738
      2          8           0        0.000000    0.000000    3.320118
      3          8           0        0.000000    0.000000   -3.320118
      4          8           0        0.000000    0.000000   -1.967738
 ---------------------------------------------------------------------

 SCF Done:  E(ROHF) =  -299.202891155     A.U. after    6 cycles
 E2 =    -0.1041837321D+01 EUMP2 =    -0.30024472847613D+03
 CCSD(T)
 CCSD(T)= -0.30021939859D+03

 The electronic state is 5-SGG.
 Alpha  occ. eigenvalues --  -20.77280 -20.77280 -20.77229 -20.77228  -1.60078
 Alpha  occ. eigenvalues --   -1.60074  -1.23526  -1.23495  -0.77583  -0.77583
 Alpha  occ. eigenvalues --   -0.77571  -0.77571  -0.72097  -0.71933  -0.57656
 Alpha  occ. eigenvalues --   -0.57656  -0.57627  -0.57627
 Alpha virt. eigenvalues --    0.23466   0.26015   0.61694   0.68805   0.68805
 Alpha virt. eigenvalues --    0.69196   0.69196   0.70368   0.73224   0.78582
 Alpha virt. eigenvalues --    0.78582   0.79701   0.79701   0.81595   0.88495

 Mulliken charges and spin densities:
               1          2
     1  O   -0.000860   0.998735
     2  O    0.000860   1.001265
     3  O    0.000860   1.001265
     4  O   -0.000860   0.998735
 Sum of Mulliken charges =   0.00000   4.00000

 Dipole moment (field-independent basis, Debye):
    X=              0.0000    Y=              0.0000    Z=             -0.0000  Tot=              0.0000
 Quadrupole moment (field-independent basis, Debye-Ang):
   XX=            -20.3614   YY=            -20.3614   ZZ=            -20.0989
   XY=              0.0000   XZ=              0.0000   YZ=              0.0000

 =-300.188192\CCSD=-300.1693864\CCSD(T)=-300.2193986\RMSD=9.770e-09\PG=
 Normal termination of Gaussian 16 at Sat Jan 14 23:43:24 2023.
