 Gaussian 16, Revision A.03,
 Gaussian 16:  ES64L-G16RevA.03 25-Dec-2016

 ---------------------------------------------------------------
 #p ROCCSD(T)/cc-pVTZ Guess=Read SCF=(VeryTight,CDIIS,VShift=10)
 ---------------------------------------------------------------

 --------
 O2_O2_31
 --------
 Symbolic Z-matrix:
 Charge =  0 Multiplicity = 5

                         Standard orientation:
 ---------------------------------------------------------------------
 Center     Atomic      Atomic             Coordinates (Angstroms)
 Number     Number       Type             X           Y           Z
 ---------------------------------------------------------------------
      1          8           0        0.000000    0.000000    1.231492
      2          8           0        0.000000    0.000000    2.583872
      3          8           0        0.000000    0.000000   -2.583872
      4          8           0        0.000000    0.000000   -1.231492
 ---------------------------------------------------------------------

 SCF Done:  E(ROHF) =  -299.198896951     A.U. after   12 cycles
 E2 =    -0.1044251373D+01 EUMP2 =    -0.30024314832417D+03
 CCSD(T)
 CCSD(T)= -0.30021731448D+03

 The electronic state is 5-SGG.
 Alpha  occ. eigenvalues --  -20.77628 -20.77628 -20.76582 -20.76581  -1.60170
 Alpha  occ. eigenvalues --   -1.59865  -1.24329  -1.22702  -0.77743  -0.77743
 Alpha  occ. eigenvalues --   -0.77298  -0.77298  -0.73859  -0.70084  -0.58023
 Alpha  occ. eigenvalues --   -0.58023  -0.57068  -0.57068
 Alpha virt. eigenvalues --    0.22465   0.29886   0.65919   0.65919   0.67818
 Alpha virt. eigenvalues --    0.70315   0.70315   0.70711   0.72947   0.74747
 Alpha virt. eigenvalues --    0.74747   0.87948   0.88007   0.88007   0.88663

 Mulliken charges and spin densities:
               1          2
     1  O   -0.008717   0.965856
     2  O    0.008717   1.034144
     3  O    0.008717   1.034144
     4  O   -0.008717   0.965856
 Sum of Mulliken charges =   0.00000   4.00000

 Dipole moment (field-independent basis, Debye):
    X=              0.0000    Y=             -0.0000    Z=             -0.0000  Tot=              0.0000
 Quadrupole moment (field-independent basis, Debye-Ang):
   XX=            -20.3576   YY=            -20.3576   ZZ=            -19.6011
   XY=              0.0000   XZ=              0.0000   YZ=              0.0000

 300.1865169\CCSD=-300.1670037\CCSD(T)=-300.2173145\RMSD=5.978e-09\PG=D
 Normal termination of Gaussian 16 at Sat Jan 14 22:43:01 2023.
