 Gaussian 16, Revision A.03,
 Gaussian 16:  ES64L-G16RevA.03 25-Dec-2016

 ---------------------------------------------------------------
 #p ROCCSD(T)/cc-pVTZ Guess=Read SCF=(VeryTight,CDIIS,VShift=10)
 ---------------------------------------------------------------

 ---------
 O2_O2_149
 ---------
 Symbolic Z-matrix:
 Charge =  0 Multiplicity = 5

                         Standard orientation:
 ---------------------------------------------------------------------
 Center     Atomic      Atomic             Coordinates (Angstroms)
 Number     Number       Type             X           Y           Z
 ---------------------------------------------------------------------
      1          8           0        0.000000    0.000000    2.902204
      2          8           0        0.000000    0.000000    4.254584
      3          8           0        0.000000    0.000000   -4.254584
      4          8           0        0.000000    0.000000   -2.902204
 ---------------------------------------------------------------------

 SCF Done:  E(ROHF) =  -299.202861485     A.U. after    3 cycles
 E2 =    -0.1041588852D+01 EUMP2 =    -0.30024445033654D+03
 CCSD(T)
 CCSD(T)= -0.30021922148D+03

 The electronic state is 5-SGG.
 Alpha  occ. eigenvalues --  -20.77260 -20.77260 -20.77224 -20.77224  -1.60065
 Alpha  occ. eigenvalues --   -1.60065  -1.23500  -1.23500  -0.77566  -0.77566
 Alpha  occ. eigenvalues --   -0.77566  -0.77566  -0.72005  -0.72004  -0.57630
 Alpha  occ. eigenvalues --   -0.57630  -0.57630  -0.57630
 Alpha virt. eigenvalues --    0.24870   0.24892   0.67572   0.67649   0.69018
 Alpha virt. eigenvalues --    0.69018   0.69019   0.69019   0.75098   0.75131
 Alpha virt. eigenvalues --    0.79136   0.79136   0.79138   0.79138   0.88526

 Mulliken charges and spin densities:
               1          2
     1  O   -0.000227   0.999577
     2  O    0.000227   1.000423
     3  O    0.000227   1.000423
     4  O   -0.000227   0.999577
 Sum of Mulliken charges =  -0.00000   4.00000

 Dipole moment (field-independent basis, Debye):
    X=              0.0000    Y=             -0.0000    Z=              0.0000  Tot=              0.0000
 Quadrupole moment (field-independent basis, Debye-Ang):
   XX=            -20.3615   YY=            -20.3615   ZZ=            -20.1370
   XY=              0.0000   XZ=              0.0000   YZ=              0.0000

 Q=-300.1879528\CCSD=-300.16923\CCSD(T)=-300.2192215\RMSD=9.142e-09\PG=
 Normal termination of Gaussian 16 at Sun Jan 15 00:55:58 2023.
