 Gaussian 16, Revision A.03,
 Gaussian 16:  ES64L-G16RevA.03 25-Dec-2016

 ---------------------------------------------------------------
 #p ROCCSD(T)/cc-pVTZ Guess=Read SCF=(VeryTight,CDIIS,VShift=10)
 ---------------------------------------------------------------

 --------
 O2_O2_26
 --------
 Symbolic Z-matrix:
 Charge =  0 Multiplicity = 5

                         Standard orientation:
 ---------------------------------------------------------------------
 Center     Atomic      Atomic             Coordinates (Angstroms)
 Number     Number       Type             X           Y           Z
 ---------------------------------------------------------------------
      1          8           0        0.000000    0.000000    1.160699
      2          8           0        0.000000    0.000000    2.513079
      3          8           0        0.000000    0.000000   -2.513079
      4          8           0        0.000000    0.000000   -1.160699
 ---------------------------------------------------------------------

 SCF Done:  E(ROHF) =  -299.195689115     A.U. after   12 cycles
 E2 =    -0.1044537908D+01 EUMP2 =    -0.30024022702352D+03
 CCSD(T)
 CCSD(T)= -0.30021472764D+03

 The electronic state is 5-SGG.
 Alpha  occ. eigenvalues --  -20.77833 -20.77832 -20.76144 -20.76143  -1.60202
 Alpha  occ. eigenvalues --   -1.59750  -1.24679  -1.22329  -0.77794  -0.77794
 Alpha  occ. eigenvalues --   -0.77190  -0.77190  -0.74425  -0.69385  -0.58130
 Alpha  occ. eigenvalues --   -0.58130  -0.56781  -0.56781
 Alpha virt. eigenvalues --    0.22590   0.30690   0.65877   0.65877   0.67283
 Alpha virt. eigenvalues --    0.70133   0.70336   0.70336   0.74531   0.74531
 Alpha virt. eigenvalues --    0.78026   0.87830   0.88751   0.89423   0.89423

 Mulliken charges and spin densities:
               1          2
     1  O   -0.013709   0.944574
     2  O    0.013709   1.055426
     3  O    0.013709   1.055426
     4  O   -0.013709   0.944574
 Sum of Mulliken charges =  -0.00000   4.00000

 Dipole moment (field-independent basis, Debye):
    X=              0.0000    Y=              0.0000    Z=             -0.0000  Tot=              0.0000
 Quadrupole moment (field-independent basis, Debye-Ang):
   XX=            -20.3544   YY=            -20.3544   ZZ=            -19.3150
   XY=              0.0000   XZ=              0.0000   YZ=              0.0000

 300.1840102\CCSD=-300.1643222\CCSD(T)=-300.2147276\RMSD=1.337e-09\PG=D
 Normal termination of Gaussian 16 at Sat Jan 14 22:37:02 2023.
