 Gaussian 16, Revision A.03,
 Gaussian 16:  ES64L-G16RevA.03 25-Dec-2016

 ---------------------------------------------------------------
 #p ROCCSD(T)/cc-pVTZ Guess=Read SCF=(VeryTight,CDIIS,VShift=10)
 ---------------------------------------------------------------

 --------
 O2_O2_95
 --------
 Symbolic Z-matrix:
 Charge =  0 Multiplicity = 5

                         Standard orientation:
 ---------------------------------------------------------------------
 Center     Atomic      Atomic             Coordinates (Angstroms)
 Number     Number       Type             X           Y           Z
 ---------------------------------------------------------------------
      1          8           0        0.000000    0.000000    2.137641
      2          8           0        0.000000    0.000000    3.490021
      3          8           0        0.000000    0.000000   -3.490021
      4          8           0        0.000000    0.000000   -2.137641
 ---------------------------------------------------------------------

 SCF Done:  E(ROHF) =  -299.202876515     A.U. after    4 cycles
 E2 =    -0.1041727586D+01 EUMP2 =    -0.30024460410144D+03
 CCSD(T)
 CCSD(T)= -0.30021931586D+03

 The electronic state is 5-SGG.
 Alpha  occ. eigenvalues --  -20.77272 -20.77272 -20.77227 -20.77227  -1.60072
 Alpha  occ. eigenvalues --   -1.60071  -1.23513  -1.23501  -0.77575  -0.77575
 Alpha  occ. eigenvalues --   -0.77571  -0.77571  -0.72050  -0.71974  -0.57643
 Alpha  occ. eigenvalues --   -0.57643  -0.57631  -0.57631
 Alpha virt. eigenvalues --    0.24102   0.25542   0.64381   0.68932   0.68932
 Alpha virt. eigenvalues --    0.69091   0.69091   0.69703   0.73865   0.77734
 Alpha virt. eigenvalues --    0.78905   0.78905   0.79361   0.79361   0.88515

 Mulliken charges and spin densities:
               1          2
     1  O   -0.000625   0.999006
     2  O    0.000625   1.000994
     3  O    0.000625   1.000994
     4  O   -0.000625   0.999006
 Sum of Mulliken charges =  -0.00000   4.00000

 Dipole moment (field-independent basis, Debye):
    X=              0.0000    Y=              0.0000    Z=              0.0000  Tot=              0.0000
 Quadrupole moment (field-independent basis, Debye-Ang):
   XX=            -20.3614   YY=            -20.3614   ZZ=            -20.1112
   XY=              0.0000   XZ=              0.0000   YZ=              0.0000

 =-300.1880863\CCSD=-300.1693135\CCSD(T)=-300.2193159\RMSD=4.448e-10\PG
 Normal termination of Gaussian 16 at Sat Jan 14 23:56:23 2023.
