 Gaussian 16, Revision A.03,
 Gaussian 16:  ES64L-G16RevA.03 25-Dec-2016

 ---------------------------------------------------------------
 #p ROCCSD(T)/cc-pVTZ Guess=Read SCF=(VeryTight,CDIIS,VShift=10)
 ---------------------------------------------------------------

 --------
 O2_O2_75
 --------
 Symbolic Z-matrix:
 Charge =  0 Multiplicity = 5

                         Standard orientation:
 ---------------------------------------------------------------------
 Center     Atomic      Atomic             Coordinates (Angstroms)
 Number     Number       Type             X           Y           Z
 ---------------------------------------------------------------------
      1          8           0        0.000000    0.000000    1.854469
      2          8           0        0.000000    0.000000    3.206849
      3          8           0        0.000000    0.000000   -3.206849
      4          8           0        0.000000    0.000000   -1.854469
 ---------------------------------------------------------------------

 SCF Done:  E(ROHF) =  -299.202892003     A.U. after   12 cycles
 E2 =    -0.1041956486D+01 EUMP2 =    -0.30024484848964D+03
 CCSD(T)
 CCSD(T)= -0.30021947690D+03

 The electronic state is 5-SGG.
 Alpha  occ. eigenvalues --  -20.77287 -20.77287 -20.77228 -20.77228  -1.60082
 Alpha  occ. eigenvalues --   -1.60075  -1.23543  -1.23485  -0.77590  -0.77590
 Alpha  occ. eigenvalues --   -0.77570  -0.77570  -0.72153  -0.71884  -0.57670
 Alpha  occ. eigenvalues --   -0.57670  -0.57619  -0.57619
 Alpha virt. eigenvalues --    0.22966   0.26400   0.59865   0.68645   0.68645
 Alpha virt. eigenvalues --    0.69315   0.69315   0.70512   0.72850   0.78210
 Alpha virt. eigenvalues --    0.78210   0.80122   0.80122   0.85835   0.88479

 Mulliken charges and spin densities:
               1          2
     1  O   -0.001124   0.998400
     2  O    0.001124   1.001600
     3  O    0.001124   1.001600
     4  O   -0.001124   0.998400
 Sum of Mulliken charges =  -0.00000   4.00000

 Dipole moment (field-independent basis, Debye):
    X=              0.0000    Y=              0.0000    Z=             -0.0000  Tot=              0.0000
 Quadrupole moment (field-independent basis, Debye-Ang):
   XX=            -20.3613   YY=            -20.3613   ZZ=            -20.0882
   XY=              0.0000   XZ=              0.0000   YZ=              0.0000

 300.1882924\CCSD=-300.1694533\CCSD(T)=-300.2194769\RMSD=3.346e-09\PG=D
 Normal termination of Gaussian 16 at Sat Jan 14 23:34:29 2023.
