 Gaussian 16, Revision A.03,
 Gaussian 16:  ES64L-G16RevA.03 25-Dec-2016

 ---------------------------------------------------------------
 #p ROCCSD(T)/cc-pVTZ Guess=Read SCF=(VeryTight,CDIIS,VShift=10)
 ---------------------------------------------------------------

 --------
 O2_O2_33
 --------
 Symbolic Z-matrix:
 Charge =  0 Multiplicity = 5

                         Standard orientation:
 ---------------------------------------------------------------------
 Center     Atomic      Atomic             Coordinates (Angstroms)
 Number     Number       Type             X           Y           Z
 ---------------------------------------------------------------------
      1          8           0        0.000000    0.000000    1.259809
      2          8           0        0.000000    0.000000    2.612189
      3          8           0        0.000000    0.000000   -2.612189
      4          8           0        0.000000    0.000000   -1.259809
 ---------------------------------------------------------------------

 SCF Done:  E(ROHF) =  -299.199746135     A.U. after   12 cycles
 E2 =    -0.1044075662D+01 EUMP2 =    -0.30024382179768D+03
 CCSD(T)
 CCSD(T)= -0.30021796173D+03

 The electronic state is 5-SGG.
 Alpha  occ. eigenvalues --  -20.77569 -20.77569 -20.76705 -20.76705  -1.60160
 Alpha  occ. eigenvalues --   -1.59900  -1.24220  -1.22816  -0.77727  -0.77727
 Alpha  occ. eigenvalues --   -0.77335  -0.77335  -0.73668  -0.70307  -0.57985
 Alpha  occ. eigenvalues --   -0.57985  -0.57151  -0.57151
 Alpha virt. eigenvalues --    0.22416   0.29614   0.66004   0.66004   0.68020
 Alpha virt. eigenvalues --    0.70295   0.70295   0.70901   0.71107   0.74855
 Alpha virt. eigenvalues --    0.74855   0.87450   0.87450   0.87992   0.88648

 Mulliken charges and spin densities:
               1          2
     1  O   -0.007370   0.971876
     2  O    0.007370   1.028124
     3  O    0.007370   1.028124
     4  O   -0.007370   0.971876
 Sum of Mulliken charges =  -0.00000   4.00000

 Dipole moment (field-independent basis, Debye):
    X=              0.0000    Y=             -0.0000    Z=             -0.0000  Tot=              0.0000
 Quadrupole moment (field-independent basis, Debye-Ang):
   XX=            -20.3584   YY=            -20.3584   ZZ=            -19.6849
   XY=              0.0000   XZ=              0.0000   YZ=              0.0000

 =-300.1871301\CCSD=-300.167683\CCSD(T)=-300.2179617\RMSD=4.115e-09\PG=
 Normal termination of Gaussian 16 at Sat Jan 14 22:45:20 2023.
