 Gaussian 16, Revision A.03,
 Gaussian 16:  ES64L-G16RevA.03 25-Dec-2016

 ---------------------------------------------------------------
 #p ROCCSD(T)/cc-pVTZ Guess=Read SCF=(VeryTight,CDIIS,VShift=10)
 ---------------------------------------------------------------

 ---------
 O2_O2_111
 ---------
 Symbolic Z-matrix:
 Charge =  0 Multiplicity = 5

                         Standard orientation:
 ---------------------------------------------------------------------
 Center     Atomic      Atomic             Coordinates (Angstroms)
 Number     Number       Type             X           Y           Z
 ---------------------------------------------------------------------
      1          8           0        0.000000    0.000000    2.364178
      2          8           0        0.000000    0.000000    3.716558
      3          8           0        0.000000    0.000000   -3.716558
      4          8           0        0.000000    0.000000   -2.364178
 ---------------------------------------------------------------------

 SCF Done:  E(ROHF) =  -299.202864123     A.U. after    5 cycles
 E2 =    -0.1041653486D+01 EUMP2 =    -0.30024451760884D+03
 CCSD(T)
 CCSD(T)= -0.30021926023D+03

 The electronic state is 5-SGG.
 Alpha  occ. eigenvalues --  -20.77266 -20.77266 -20.77225 -20.77225  -1.60069
 Alpha  occ. eigenvalues --   -1.60068  -1.23505  -1.23502  -0.77570  -0.77570
 Alpha  occ. eigenvalues --   -0.77569  -0.77569  -0.72021  -0.71996  -0.57636
 Alpha  occ. eigenvalues --   -0.57636  -0.57632  -0.57632
 Alpha virt. eigenvalues --    0.24597   0.25140   0.66507   0.68552   0.68995
 Alpha virt. eigenvalues --    0.68995   0.69036   0.69036   0.74604   0.75777
 Alpha virt. eigenvalues --    0.79075   0.79075   0.79192   0.79192   0.88523

 Mulliken charges and spin densities:
               1          2
     1  O   -0.000438   0.999240
     2  O    0.000438   1.000760
     3  O    0.000438   1.000760
     4  O   -0.000438   0.999240
 Sum of Mulliken charges =  -0.00000   4.00000

 Dipole moment (field-independent basis, Debye):
    X=              0.0000    Y=              0.0000    Z=              0.0000  Tot=              0.0000
 Quadrupole moment (field-independent basis, Debye-Ang):
   XX=            -20.3615   YY=            -20.3615   ZZ=            -20.1228
   XY=              0.0000   XZ=              0.0000   YZ=              0.0000

 Q=-300.1880114\CCSD=-300.169264\CCSD(T)=-300.2192602\RMSD=5.756e-09\PG
 Normal termination of Gaussian 16 at Sun Jan 15 00:14:26 2023.
