 Gaussian 16, Revision A.03,
 Gaussian 16:  ES64L-G16RevA.03 25-Dec-2016

 ---------------------------------------------------------------
 #p ROCCSD(T)/cc-pVTZ Guess=Read SCF=(VeryTight,CDIIS,VShift=10)
 ---------------------------------------------------------------

 --------
 O2_O2_48
 --------
 Symbolic Z-matrix:
 Charge =  0 Multiplicity = 5

                         Standard orientation:
 ---------------------------------------------------------------------
 Center     Atomic      Atomic             Coordinates (Angstroms)
 Number     Number       Type             X           Y           Z
 ---------------------------------------------------------------------
      1          8           0        0.000000    0.000000    1.472188
      2          8           0        0.000000    0.000000    2.824568
      3          8           0        0.000000    0.000000   -2.824568
      4          8           0        0.000000    0.000000   -1.472188
 ---------------------------------------------------------------------

 SCF Done:  E(ROHF) =  -299.202395793     A.U. after   12 cycles
 E2 =    -0.1042887359D+01 EUMP2 =    -0.30024528315274D+03
 CCSD(T)
 CCSD(T)= -0.30021963692D+03

 The electronic state is 5-SGG.
 Alpha  occ. eigenvalues --  -20.77358 -20.77358 -20.77128 -20.77128  -1.60112
 Alpha  occ. eigenvalues --   -1.60037  -1.23751  -1.23292  -0.77646  -0.77646
 Alpha  occ. eigenvalues --   -0.77504  -0.77504  -0.72719  -0.71331  -0.57793
 Alpha  occ. eigenvalues --   -0.57793  -0.57482  -0.57482
 Alpha virt. eigenvalues --    0.22144   0.28097   0.61415   0.67190   0.67190
 Alpha virt. eigenvalues --    0.69386   0.69985   0.69985   0.71836   0.75998
 Alpha virt. eigenvalues --    0.75998   0.83717   0.83717   0.88248   0.88607

 Mulliken charges and spin densities:
               1          2
     1  O   -0.003113   0.992611
     2  O    0.003113   1.007389
     3  O    0.003113   1.007389
     4  O   -0.003113   0.992611
 Sum of Mulliken charges =  -0.00000   4.00000

 Dipole moment (field-independent basis, Debye):
    X=              0.0000    Y=              0.0000    Z=             -0.0000  Tot=              0.0000
 Quadrupole moment (field-independent basis, Debye-Ang):
   XX=            -20.3604   YY=            -20.3604   ZZ=            -19.9873
   XY=              0.0000   XZ=              0.0000   YZ=              0.0000

 =-300.188606\CCSD=-300.1695142\CCSD(T)=-300.2196369\RMSD=4.542e-09\PG=
 Normal termination of Gaussian 16 at Sat Jan 14 23:03:34 2023.
