 Gaussian 16, Revision A.03,
 Gaussian 16:  ES64L-G16RevA.03 25-Dec-2016

 ---------------------------------------------------------------
 #p ROCCSD(T)/cc-pVTZ Guess=Read SCF=(VeryTight,CDIIS,VShift=10)
 ---------------------------------------------------------------

 --------
 O2_O2_99
 --------
 Symbolic Z-matrix:
 Charge =  0 Multiplicity = 5

                         Standard orientation:
 ---------------------------------------------------------------------
 Center     Atomic      Atomic             Coordinates (Angstroms)
 Number     Number       Type             X           Y           Z
 ---------------------------------------------------------------------
      1          8           0        0.000000    0.000000    2.194275
      2          8           0        0.000000    0.000000    3.546655
      3          8           0        0.000000    0.000000   -3.546655
      4          8           0        0.000000    0.000000   -2.194275
 ---------------------------------------------------------------------

 SCF Done:  E(ROHF) =  -299.202872106     A.U. after   15 cycles
 E2 =    -0.1041703556D+01 EUMP2 =    -0.30024457566127D+03
 CCSD(T)
 CCSD(T)= -0.30021929712D+03

 The electronic state is 5-SGG.
 Alpha  occ. eigenvalues --  -20.77270 -20.77270 -20.77227 -20.77227  -1.60071
 Alpha  occ. eigenvalues --   -1.60070  -1.23510  -1.23502  -0.77574  -0.77574
 Alpha  occ. eigenvalues --   -0.77570  -0.77570  -0.72040  -0.71982  -0.57641
 Alpha  occ. eigenvalues --   -0.57641  -0.57632  -0.57632
 Alpha virt. eigenvalues --    0.24263   0.25417   0.65082   0.68955   0.68955
 Alpha virt. eigenvalues --    0.69070   0.69070   0.69403   0.74077   0.76993
 Alpha virt. eigenvalues --    0.78968   0.78968   0.79298   0.79298   0.88518

 Mulliken charges and spin densities:
               1          2
     1  O   -0.000538   0.999147
     2  O    0.000538   1.000853
     3  O    0.000538   1.000853
     4  O   -0.000538   0.999147
 Sum of Mulliken charges =  -0.00000   4.00000

 Dipole moment (field-independent basis, Debye):
    X=              0.0000    Y=              0.0000    Z=              0.0000  Tot=              0.0000
 Quadrupole moment (field-independent basis, Debye-Ang):
   XX=            -20.3614   YY=            -20.3614   ZZ=            -20.1168
   XY=              0.0000   XZ=              0.0000   YZ=              0.0000

 300.1880617\CCSD=-300.1692968\CCSD(T)=-300.2192971\RMSD=7.514e-10\PG=D
 Normal termination of Gaussian 16 at Sun Jan 15 00:00:54 2023.
