 Gaussian 16, Revision A.03,
 Gaussian 16:  ES64L-G16RevA.03 25-Dec-2016

 ---------------------------------------------------------------
 #p ROCCSD(T)/cc-pVTZ Guess=Read SCF=(VeryTight,CDIIS,VShift=10)
 ---------------------------------------------------------------

 --------
 O2_O2_11
 --------
 Symbolic Z-matrix:
 Charge =  0 Multiplicity = 5

                         Standard orientation:
 ---------------------------------------------------------------------
 Center     Atomic      Atomic             Coordinates (Angstroms)
 Number     Number       Type             X           Y           Z
 ---------------------------------------------------------------------
      1          8           0        0.000000    0.000000    0.948320
      2          8           0        0.000000    0.000000    2.300700
      3          8           0        0.000000    0.000000   -2.300700
      4          8           0        0.000000    0.000000   -0.948320
 ---------------------------------------------------------------------

 SCF Done:  E(ROHF) =  -299.164126665     A.U. after   17 cycles
 E2 =    -0.1036349819D+01 EUMP2 =    -0.30020047648438D+03
 CCSD(T)
 CCSD(T)= -0.30018614979D+03

 The electronic state is 5-SGG.
 Alpha  occ. eigenvalues --  -20.78980 -20.78979 -20.73047 -20.73046  -1.60463
 Alpha  occ. eigenvalues --   -1.59130  -1.26904  -1.19902  -0.78241  -0.78241
 Alpha  occ. eigenvalues --   -0.77108  -0.76972  -0.76972  -0.65252  -0.58554
 Alpha  occ. eigenvalues --   -0.58554  -0.54456  -0.54456
 Alpha virt. eigenvalues --    0.22927   0.35127   0.65258   0.67505   0.67505
 Alpha virt. eigenvalues --    0.67662   0.70072   0.70072   0.74891   0.74891
 Alpha virt. eigenvalues --    0.87186   0.87350   0.93744   0.93744   0.96356

 Mulliken charges and spin densities:
               1          2
     1  O   -0.052804   0.797982
     2  O    0.052804   1.202018
     3  O    0.052804   1.202018
     4  O   -0.052804   0.797982
 Sum of Mulliken charges =  -0.00000   4.00000

 Dipole moment (field-independent basis, Debye):
    X=              0.0000    Y=              0.0000    Z=             -0.0000  Tot=              0.0000
 Quadrupole moment (field-independent basis, Debye-Ang):
   XX=            -20.3081   YY=            -20.3081   ZZ=            -17.6633
   XY=              0.0000   XZ=             -0.0000   YZ=              0.0000

 00.1546636\CCSD=-300.1354144\CCSD(T)=-300.1861498\RMSD=2.838e-09\PG=D*
 Normal termination of Gaussian 16 at Sat Jan 14 22:19:47 2023.
