 Gaussian 16, Revision A.03,
 Gaussian 16:  ES64L-G16RevA.03 25-Dec-2016

 ---------------------------------------------------------------
 #p ROCCSD(T)/cc-pVTZ Guess=Read SCF=(VeryTight,CDIIS,VShift=10)
 ---------------------------------------------------------------

 ---------
 O2_O2_146
 ---------
 Symbolic Z-matrix:
 Charge = -1 Multiplicity = 4

                         Standard orientation:
 ---------------------------------------------------------------------
 Center     Atomic      Atomic             Coordinates (Angstroms)
 Number     Number       Type             X           Y           Z
 ---------------------------------------------------------------------
      1          8           0        0.000000    0.000000    1.826152
      2          8           0        0.000000    0.000000    3.178532
      3          8           0        0.000000    0.000000   -3.178532
      4          8           0        0.000000    0.000000   -1.826152
 ---------------------------------------------------------------------

 SCF Done:  E(ROHF) =  -299.198314612     A.U. after    8 cycles
 E2 =    -0.9819668480D+00 EUMP2 =    -0.30018028146034D+03
 CCSD(T)
 CCSD(T)= -0.30022655496D+03

 Unable to determine electronic state:  an orbital has unidentified symmetry.
 Alpha  occ. eigenvalues --  -20.48552 -20.48552 -20.43821 -20.43821  -1.31494
 Alpha  occ. eigenvalues --   -1.31485  -0.94333  -0.94247  -0.51485  -0.51470
 Alpha  occ. eigenvalues --   -0.48009  -0.48006  -0.44234  -0.43871  -0.28331
 Alpha  occ. eigenvalues --   -0.28218  -0.26666  -0.26621
 Alpha virt. eigenvalues --    0.48282   0.53080   0.86008   0.90910   0.91082
 Alpha virt. eigenvalues --    0.91385   0.92854   0.93321   0.93460   1.00926
 Alpha virt. eigenvalues --    1.01499   1.03704   1.04150   1.11984   1.12951

 Mulliken charges and spin densities:
               1          2
     1  O   -0.316072   0.579051
     2  O   -0.183928   0.920949
     3  O   -0.183928   0.920949
     4  O   -0.316072   0.579051
 Sum of Mulliken charges =  -1.00000   3.00000

 Dipole moment (field-independent basis, Debye):
    X=             -0.0000    Y=              0.0000    Z=             -0.0000  Tot=              0.0000
 Quadrupole moment (field-independent basis, Debye-Ang):
   XX=            -21.8722   YY=            -23.0166   ZZ=            -51.8274
   XY=              0.0000   XZ=              0.0000   YZ=              0.0000

 0.1688547\CCSD=-300.1786555\CCSD(T)=-300.226555\RMSD=4.421e-09\PG=D*H
 Normal termination of Gaussian 16 at Sun Jan 15 05:39:55 2023.
