 Gaussian 16, Revision A.03,
 Gaussian 16:  ES64L-G16RevA.03 25-Dec-2016

 ---------------------------------------------------------------
 #p ROCCSD(T)/cc-pVTZ Guess=Read SCF=(VeryTight,CDIIS,VShift=10)
 ---------------------------------------------------------------

 ---------
 O2_O2_123
 ---------
 Symbolic Z-matrix:
 Charge = -1 Multiplicity = 4

                         Standard orientation:
 ---------------------------------------------------------------------
 Center     Atomic      Atomic             Coordinates (Angstroms)
 Number     Number       Type             X           Y           Z
 ---------------------------------------------------------------------
      1          8           0        0.000000    0.000000    1.663329
      2          8           0        0.000000    0.000000    3.015709
      3          8           0        0.000000    0.000000   -3.015709
      4          8           0        0.000000    0.000000   -1.663329
 ---------------------------------------------------------------------

 SCF Done:  E(ROHF) =  -299.199764826     A.U. after    8 cycles
 E2 =    -0.9808838731D+00 EUMP2 =    -0.30018064869919D+03
 CCSD(T)
 CCSD(T)= -0.30022807605D+03

 Unable to determine electronic state:  an orbital has unidentified symmetry.
 Alpha  occ. eigenvalues --  -20.48071 -20.48071 -20.43521 -20.43521  -1.31113
 Alpha  occ. eigenvalues --   -1.31090  -0.93990  -0.93795  -0.51082  -0.51047
 Alpha  occ. eigenvalues --   -0.47629  -0.47596  -0.43983  -0.43275  -0.28016
 Alpha  occ. eigenvalues --   -0.27781  -0.26278  -0.26224
 Alpha virt. eigenvalues --    0.48258   0.54271   0.86050   0.91157   0.91363
 Alpha virt. eigenvalues --    0.91497   0.92931   0.93160   0.93833   1.00158
 Alpha virt. eigenvalues --    1.00892   1.05479   1.05833   1.12981   1.13311

 Mulliken charges and spin densities:
               1          2
     1  O   -0.310303   0.584074
     2  O   -0.189697   0.915926
     3  O   -0.189697   0.915926
     4  O   -0.310303   0.584074
 Sum of Mulliken charges =  -1.00000   3.00000

 Dipole moment (field-independent basis, Debye):
    X=             -0.0000    Y=             -0.0000    Z=             -0.0000  Tot=              0.0000
 Quadrupole moment (field-independent basis, Debye-Ang):
   XX=            -21.8737   YY=            -23.0267   ZZ=            -48.6559
   XY=              0.0000   XZ=              0.0000   YZ=              0.0000

 0.1703384\CCSD=-300.1801829\CCSD(T)=-300.228076\RMSD=6.425e-09\PG=D*H
 Normal termination of Gaussian 16 at Sun Jan 15 04:38:23 2023.
