 Gaussian 16, Revision A.03,
 Gaussian 16:  ES64L-G16RevA.03 25-Dec-2016

 ---------------------------------------------------------------
 #p ROCCSD(T)/cc-pVTZ Guess=Read SCF=(VeryTight,CDIIS,VShift=10)
 ---------------------------------------------------------------

 --------
 O2_O2_22
 --------
 Symbolic Z-matrix:
 Charge = -1 Multiplicity = 4

                         Standard orientation:
 ---------------------------------------------------------------------
 Center     Atomic      Atomic             Coordinates (Angstroms)
 Number     Number       Type             X           Y           Z
 ---------------------------------------------------------------------
      1          8           0        0.000000    0.000000    0.948320
      2          8           0        0.000000    0.000000    2.300700
      3          8           0        0.000000    0.000000   -2.300700
      4          8           0        0.000000    0.000000   -0.948320
 ---------------------------------------------------------------------

 SCF Done:  E(ROHF) =  -299.196643109     A.U. after    9 cycles
 E2 =    -0.9685004120D+00 EUMP2 =    -0.30016514352131D+03
 CCSD(T)
 CCSD(T)= -0.30022247430D+03

 Unable to determine electronic state:  an orbital has unidentified symmetry.
 Alpha  occ. eigenvalues --  -20.44112 -20.44112 -20.41251 -20.41249  -1.29353
 Alpha  occ. eigenvalues --   -1.27950  -0.95275  -0.88305  -0.48867  -0.47760
 Alpha  occ. eigenvalues --   -0.46426  -0.45996  -0.44132  -0.34225  -0.27807
 Alpha  occ. eigenvalues --   -0.25440  -0.23107  -0.21809
 Alpha virt. eigenvalues --    0.52090   0.63132   0.90490   0.91886   0.92950
 Alpha virt. eigenvalues --    0.93877   0.94032   0.96827   0.99793   1.01278
 Alpha virt. eigenvalues --    1.13577   1.14195   1.19037   1.19074   1.23902

 Mulliken charges and spin densities:
               1          2
     1  O   -0.236752   0.607452
     2  O   -0.263248   0.892548
     3  O   -0.263248   0.892548
     4  O   -0.236752   0.607452
 Sum of Mulliken charges =  -1.00000   3.00000

 Dipole moment (field-independent basis, Debye):
    X=             -0.0000    Y=              0.0000    Z=              0.0000  Tot=              0.0000
 Quadrupole moment (field-independent basis, Debye-Ang):
   XX=            -21.8172   YY=            -23.0755   ZZ=            -38.7537
   XY=              0.0000   XZ=              0.0000   YZ=              0.0000

 1650035\CCSD=-300.1746099\CCSD(T)=-300.2224743\RMSD=5.597e-09\PG=D*H [
 Normal termination of Gaussian 16 at Sun Jan 15 00:08:22 2023.
