 Gaussian 16, Revision A.03,
 Gaussian 16:  ES64L-G16RevA.03 25-Dec-2016

 ---------------------------------------------------------------
 #p ROCCSD(T)/cc-pVTZ Guess=Read SCF=(VeryTight,CDIIS,VShift=10)
 ---------------------------------------------------------------

 ---------
 O2_O2_172
 ---------
 Symbolic Z-matrix:
 Charge = -1 Multiplicity = 4

                         Standard orientation:
 ---------------------------------------------------------------------
 Center     Atomic      Atomic             Coordinates (Angstroms)
 Number     Number       Type             X           Y           Z
 ---------------------------------------------------------------------
      1          8           0        0.000000    0.000000    2.010214
      2          8           0        0.000000    0.000000    3.362594
      3          8           0        0.000000    0.000000   -3.362594
      4          8           0        0.000000    0.000000   -2.010214
 ---------------------------------------------------------------------

 SCF Done:  E(ROHF) =  -299.197337167     A.U. after    8 cycles
 E2 =    -0.9829484411D+00 EUMP2 =    -0.30018028560784D+03
 CCSD(T)
 CCSD(T)= -0.30022552348D+03

 Unable to determine electronic state:  an orbital has unidentified symmetry.
 Alpha  occ. eigenvalues --  -20.49023 -20.49023 -20.44137 -20.44137  -1.31883
 Alpha  occ. eigenvalues --   -1.31879  -0.94705  -0.94672  -0.51893  -0.51887
 Alpha  occ. eigenvalues --   -0.48409  -0.48397  -0.44556  -0.44390  -0.28677
 Alpha  occ. eigenvalues --   -0.28631  -0.27083  -0.26984
 Alpha virt. eigenvalues --    0.48770   0.51848   0.87560   0.90609   0.90680
 Alpha virt. eigenvalues --    0.91113   0.92640   0.92844   0.94299   1.01295
 Alpha virt. eigenvalues --    1.01787   1.02457   1.02975   1.05264   1.12583

 Mulliken charges and spin densities:
               1          2
     1  O   -0.321271   0.574335
     2  O   -0.178729   0.925665
     3  O   -0.178729   0.925665
     4  O   -0.321271   0.574335
 Sum of Mulliken charges =  -1.00000   3.00000

 Dipole moment (field-independent basis, Debye):
    X=             -0.0000    Y=              0.0000    Z=              0.0000  Tot=              0.0000
 Quadrupole moment (field-independent basis, Debye-Ang):
   XX=            -21.8707   YY=            -23.0103   ZZ=            -55.7415
   XY=              0.0000   XZ=              0.0000   YZ=              0.0000

 00.1678593\CCSD=-300.1776105\CCSD(T)=-300.2255235\RMSD=3.851e-09\PG=D*
 Normal termination of Gaussian 16 at Sun Jan 15 06:52:14 2023.
