 Gaussian 16, Revision A.03,
 Gaussian 16:  ES64L-G16RevA.03 25-Dec-2016

 ---------------------------------------------------------------
 #p ROCCSD(T)/cc-pVTZ Guess=Read SCF=(VeryTight,CDIIS,VShift=10)
 ---------------------------------------------------------------

 --------
 O2_O2_12
 --------
 Symbolic Z-matrix:
 Charge = -1 Multiplicity = 4

                         Standard orientation:
 ---------------------------------------------------------------------
 Center     Atomic      Atomic             Coordinates (Angstroms)
 Number     Number       Type             X           Y           Z
 ---------------------------------------------------------------------
      1          8           0        0.000000    0.000000    0.877527
      2          8           0        0.000000    0.000000    2.229907
      3          8           0        0.000000    0.000000   -2.229907
      4          8           0        0.000000    0.000000   -0.877527
 ---------------------------------------------------------------------

 SCF Done:  E(ROHF) =  -299.179330486     A.U. after   10 cycles
 E2 =    -0.9664503737D+00 EUMP2 =    -0.30014578085954D+03
 CCSD(T)
 CCSD(T)= -0.30020453944D+03

 Unable to determine electronic state:  an orbital has unidentified symmetry.
 Alpha  occ. eigenvalues --  -20.43223 -20.43223 -20.40754 -20.40752  -1.29467
 Alpha  occ. eigenvalues --   -1.27277  -0.96726  -0.86836  -0.48732  -0.47511
 Alpha  occ. eigenvalues --   -0.47110  -0.46142  -0.43395  -0.31409  -0.28291
 Alpha  occ. eigenvalues --   -0.25655  -0.21954  -0.20789
 Alpha virt. eigenvalues --    0.52247   0.65191   0.90814   0.91597   0.93367
 Alpha virt. eigenvalues --    0.94416   0.94481   0.97273   1.01076   1.02371
 Alpha virt. eigenvalues --    1.13349   1.13924   1.20100   1.20116   1.27487

 Mulliken charges and spin densities:
               1          2
     1  O   -0.219405   0.604025
     2  O   -0.280595   0.895975
     3  O   -0.280595   0.895975
     4  O   -0.219405   0.604025
 Sum of Mulliken charges =  -1.00000   3.00000

 Dipole moment (field-independent basis, Debye):
    X=             -0.0000    Y=              0.0000    Z=              0.0000  Tot=              0.0000
 Quadrupole moment (field-independent basis, Debye-Ang):
   XX=            -21.7658   YY=            -23.0380   ZZ=            -38.4425
   XY=              0.0000   XZ=              0.0000   YZ=              0.0000

 .147014\CCSD=-300.1563861\CCSD(T)=-300.2045394\RMSD=7.908e-09\PG=D*H [
 Normal termination of Gaussian 16 at Sat Jan 14 23:39:15 2023.
