 Gaussian 16, Revision A.03,
 Gaussian 16:  ES64L-G16RevA.03 25-Dec-2016

 ---------------------------------------------------------------
 #p ROCCSD(T)/cc-pVTZ Guess=Read SCF=(VeryTight,CDIIS,VShift=10)
 ---------------------------------------------------------------

 ---------
 O2_O2_248
 ---------
 Symbolic Z-matrix:
 Charge = -1 Multiplicity = 4

                         Standard orientation:
 ---------------------------------------------------------------------
 Center     Atomic      Atomic             Coordinates (Angstroms)
 Number     Number       Type             X           Y           Z
 ---------------------------------------------------------------------
      1          8           0        0.000000    0.000000    2.548240
      2          8           0        0.000000    0.000000    3.900620
      3          8           0        0.000000    0.000000   -3.900620
      4          8           0        0.000000    0.000000   -2.548240
 ---------------------------------------------------------------------

 SCF Done:  E(ROHF) =  -299.196330601     A.U. after    7 cycles
 E2 =    -0.9850224621D+00 EUMP2 =    -0.30018135306268D+03
 CCSD(T)
 CCSD(T)= -0.30022451144D+03

 Unable to determine electronic state:  an orbital has unidentified symmetry.
 Alpha  occ. eigenvalues --  -20.50086 -20.50086 -20.44921 -20.44921  -1.32796
 Alpha  occ. eigenvalues --   -1.32796  -0.95610  -0.95608  -0.52847  -0.52847
 Alpha  occ. eigenvalues --   -0.49328  -0.49310  -0.45436  -0.45425  -0.29544
 Alpha  occ. eigenvalues --   -0.29542  -0.27999  -0.27866
 Alpha virt. eigenvalues --    0.49281   0.49582   0.89216   0.89570   0.89806
 Alpha virt. eigenvalues --    0.89809   0.91878   0.91902   0.96651   0.97434
 Alpha virt. eigenvalues --    1.00896   1.00939   1.01358   1.01528   1.11709

 Mulliken charges and spin densities:
               1          2
     1  O   -0.331942   0.564661
     2  O   -0.168058   0.935339
     3  O   -0.168058   0.935339
     4  O   -0.331942   0.564661
 Sum of Mulliken charges =  -1.00000   3.00000

 Dipole moment (field-independent basis, Debye):
    X=             -0.0000    Y=             -0.0000    Z=              0.0000  Tot=              0.0000
 Quadrupole moment (field-independent basis, Debye-Ang):
   XX=            -21.8679   YY=            -23.0057   ZZ=            -69.1337
   XY=              0.0000   XZ=              0.0000   YZ=              0.0000

 668915\CCSD=-300.1765315\CCSD(T)=-300.2245114\RMSD=5.405e-09\PG=D*H [C
 Normal termination of Gaussian 16 at Mon Jan 16 04:10:52 2023.
