 Gaussian 16, Revision A.03,
 Gaussian 16:  ES64L-G16RevA.03 25-Dec-2016

 ---------------------------------------------------------------
 #p ROCCSD(T)/cc-pVTZ Guess=Read SCF=(VeryTight,CDIIS,VShift=10)
 ---------------------------------------------------------------

 -------
 O2_O2_4
 -------
 Symbolic Z-matrix:
 Charge = -1 Multiplicity = 4

                         Standard orientation:
 ---------------------------------------------------------------------
 Center     Atomic      Atomic             Coordinates (Angstroms)
 Number     Number       Type             X           Y           Z
 ---------------------------------------------------------------------
      1          8           0        0.000000    0.000000    0.820892
      2          8           0        0.000000    0.000000    2.173273
      3          8           0        0.000000    0.000000   -2.173273
      4          8           0        0.000000    0.000000   -0.820892
 ---------------------------------------------------------------------

 SCF Done:  E(ROHF) =  -299.154652843     A.U. after   10 cycles
 E2 =    -0.9653394787D+00 EUMP2 =    -0.30011999232194D+03
 CCSD(T)
 CCSD(T)= -0.30017965208D+03

 Unable to determine electronic state:  an orbital has unidentified symmetry.
 Alpha  occ. eigenvalues --  -20.42324 -20.42324 -20.40346 -20.40344  -1.29825
 Alpha  occ. eigenvalues --   -1.26628  -0.98440  -0.85406  -0.48741  -0.48530
 Alpha  occ. eigenvalues --   -0.46503  -0.46488  -0.42689  -0.28885  -0.28468
 Alpha  occ. eigenvalues --   -0.25914  -0.20840  -0.19810
 Alpha virt. eigenvalues --    0.52178   0.67267   0.91259   0.91377   0.93635
 Alpha virt. eigenvalues --    0.94773   0.94868   0.97689   1.02251   1.03434
 Alpha virt. eigenvalues --    1.13062   1.13511   1.20832   1.20836   1.29685

 Mulliken charges and spin densities:
               1          2
     1  O   -0.201407   0.598926
     2  O   -0.298593   0.901074
     3  O   -0.298593   0.901074
     4  O   -0.201407   0.598926
 Sum of Mulliken charges =  -1.00000   3.00000

 Dipole moment (field-independent basis, Debye):
    X=             -0.0000    Y=              0.0000    Z=              0.0000  Tot=              0.0000
 Quadrupole moment (field-independent basis, Debye-Ang):
   XX=            -21.7019   YY=            -22.9856   ZZ=            -38.4047
   XY=              0.0000   XZ=              0.0000   YZ=              0.0000

 .1219792\CCSD=-300.1310024\CCSD(T)=-300.1796521\RMSD=9.073e-09\PG=D*H
 Normal termination of Gaussian 16 at Sat Jan 14 23:17:58 2023.
