 Gaussian 16, Revision A.03,
 Gaussian 16:  ES64L-G16RevA.03 25-Dec-2016

 ---------------------------------------------------------------
 #p ROCCSD(T)/cc-pVTZ Guess=Read SCF=(VeryTight,CDIIS,VShift=10)
 ---------------------------------------------------------------

 ---------
 O2_O2_165
 ---------
 Symbolic Z-matrix:
 Charge = -1 Multiplicity = 4

                         Standard orientation:
 ---------------------------------------------------------------------
 Center     Atomic      Atomic             Coordinates (Angstroms)
 Number     Number       Type             X           Y           Z
 ---------------------------------------------------------------------
      1          8           0        0.000000    0.000000    1.960659
      2          8           0        0.000000    0.000000    3.313039
      3          8           0        0.000000    0.000000   -3.313039
      4          8           0        0.000000    0.000000   -1.960659
 ---------------------------------------------------------------------

 SCF Done:  E(ROHF) =  -299.197548112     A.U. after    8 cycles
 E2 =    -0.9827027957D+00 EUMP2 =    -0.30018025090731D+03
 CCSD(T)
 CCSD(T)= -0.30022574455D+03

 Unable to determine electronic state:  an orbital has unidentified symmetry.
 Alpha  occ. eigenvalues --  -20.48903 -20.48903 -20.44055 -20.44055  -1.31782
 Alpha  occ. eigenvalues --   -1.31778  -0.94607  -0.94565  -0.51788  -0.51780
 Alpha  occ. eigenvalues --   -0.48306  -0.48297  -0.44468  -0.44262  -0.28586
 Alpha  occ. eigenvalues --   -0.28527  -0.26978  -0.26889
 Alpha virt. eigenvalues --    0.48626   0.52164   0.87114   0.90690   0.90782
 Alpha virt. eigenvalues --    0.91215   0.92705   0.92962   0.94014   1.01241
 Alpha virt. eigenvalues --    1.01748   1.02730   1.03233   1.06967   1.12679

 Mulliken charges and spin densities:
               1          2
     1  O   -0.319976   0.575518
     2  O   -0.180024   0.924482
     3  O   -0.180024   0.924482
     4  O   -0.319976   0.575518
 Sum of Mulliken charges =  -1.00000   3.00000

 Dipole moment (field-independent basis, Debye):
    X=             -0.0000    Y=             -0.0000    Z=             -0.0000  Tot=              0.0000
 Quadrupole moment (field-independent basis, Debye-Ang):
   XX=            -21.8711   YY=            -23.0116   ZZ=            -54.6538
   XY=              0.0000   XZ=              0.0000   YZ=              0.0000

 00.1680722\CCSD=-300.1778362\CCSD(T)=-300.2257446\RMSD=3.899e-09\PG=D*
 Normal termination of Gaussian 16 at Sun Jan 15 06:33:14 2023.
