 Gaussian 16, Revision A.03,
 Gaussian 16:  ES64L-G16RevA.03 25-Dec-2016

 ---------------------------------------------------------------
 #p ROCCSD(T)/cc-pVTZ Guess=Read SCF=(VeryTight,CDIIS,VShift=10)
 ---------------------------------------------------------------

 --------
 O2_O2_63
 --------
 Symbolic Z-matrix:
 Charge = -1 Multiplicity = 4

                         Standard orientation:
 ---------------------------------------------------------------------
 Center     Atomic      Atomic             Coordinates (Angstroms)
 Number     Number       Type             X           Y           Z
 ---------------------------------------------------------------------
      1          8           0        0.000000    0.000000    1.238571
      2          8           0        0.000000    0.000000    2.590951
      3          8           0        0.000000    0.000000   -2.590951
      4          8           0        0.000000    0.000000   -1.238571
 ---------------------------------------------------------------------

 SCF Done:  E(ROHF) =  -299.207271830     A.U. after   10 cycles
 E2 =    -0.9758660623D+00 EUMP2 =    -0.30018313789245D+03
 CCSD(T)
 CCSD(T)= -0.30023518759D+03

 Unable to determine electronic state:  an orbital has unidentified symmetry.
 Alpha  occ. eigenvalues --  -20.46328 -20.46328 -20.42563 -20.42562  -1.29959
 Alpha  occ. eigenvalues --   -1.29705  -0.93437  -0.91791  -0.49812  -0.49548
 Alpha  occ. eigenvalues --   -0.46506  -0.46084  -0.44116  -0.40245  -0.27363
 Alpha  occ. eigenvalues --   -0.25955  -0.25439  -0.24420
 Alpha virt. eigenvalues --    0.50538   0.58142   0.90499   0.91639   0.92423
 Alpha virt. eigenvalues --    0.92793   0.92832   0.95451   0.97756   0.99434
 Alpha virt. eigenvalues --    1.02092   1.13452   1.13569   1.13669   1.14399

 Mulliken charges and spin densities:
               1          2
     1  O   -0.282097   0.601593
     2  O   -0.217903   0.898407
     3  O   -0.217903   0.898407
     4  O   -0.282097   0.601593
 Sum of Mulliken charges =  -1.00000   3.00000

 Dipole moment (field-independent basis, Debye):
    X=             -0.0000    Y=              0.0000    Z=              0.0000  Tot=              0.0000
 Quadrupole moment (field-independent basis, Debye-Ang):
   XX=            -21.8747   YY=            -23.0784   ZZ=            -41.7573
   XY=              0.0000   XZ=              0.0000   YZ=              0.0000

 .1775222\CCSD=-300.1873884\CCSD(T)=-300.2351876\RMSD=9.413e-09\PG=D*H
 Normal termination of Gaussian 16 at Sun Jan 15 01:55:02 2023.
