 Gaussian 16, Revision A.03,
 Gaussian 16:  ES64L-G16RevA.03 25-Dec-2016

 ---------------------------------------------------------------
 #p ROCCSD(T)/cc-pVTZ Guess=Read SCF=(VeryTight,CDIIS,VShift=10)
 ---------------------------------------------------------------

 --------
 O2_O2_37
 --------
 Symbolic Z-matrix:
 Charge = -1 Multiplicity = 4

                         Standard orientation:
 ---------------------------------------------------------------------
 Center     Atomic      Atomic             Coordinates (Angstroms)
 Number     Number       Type             X           Y           Z
 ---------------------------------------------------------------------
      1          8           0        0.000000    0.000000    1.054510
      2          8           0        0.000000    0.000000    2.406890
      3          8           0        0.000000    0.000000   -2.406890
      4          8           0        0.000000    0.000000   -1.054510
 ---------------------------------------------------------------------

 SCF Done:  E(ROHF) =  -299.206781645     A.U. after   11 cycles
 E2 =    -0.9716364733D+00 EUMP2 =    -0.30017841811779D+03
 CCSD(T)
 CCSD(T)= -0.30023359034D+03

 Unable to determine electronic state:  an orbital has unidentified symmetry.
 Alpha  occ. eigenvalues --  -20.45116 -20.45116 -20.41862 -20.41860  -1.29481
 Alpha  occ. eigenvalues --   -1.28740  -0.94075  -0.89964  -0.49189  -0.48543
 Alpha  occ. eigenvalues --   -0.46077  -0.45214  -0.45006  -0.37192  -0.27445
 Alpha  occ. eigenvalues --   -0.25314  -0.24433  -0.23001
 Alpha virt. eigenvalues --    0.51610   0.60838   0.90368   0.92252   0.92311
 Alpha virt. eigenvalues --    0.93021   0.93542   0.96265   0.98452   1.00170
 Alpha virt. eigenvalues --    1.13720   1.13870   1.17042   1.17192   1.17256

 Mulliken charges and spin densities:
               1          2
     1  O   -0.256857   0.607815
     2  O   -0.243143   0.892185
     3  O   -0.243143   0.892185
     4  O   -0.256857   0.607815
 Sum of Mulliken charges =  -1.00000   3.00000

 Dipole moment (field-independent basis, Debye):
    X=             -0.0000    Y=             -0.0000    Z=              0.0000  Tot=              0.0000
 Quadrupole moment (field-independent basis, Debye-Ang):
   XX=            -21.8563   YY=            -23.0940   ZZ=            -39.5991
   XY=              0.0000   XZ=              0.0000   YZ=              0.0000

 0.1760779\CCSD=-300.1858442\CCSD(T)=-300.2335903\RMSD=1.190e-09\PG=D*H
 Normal termination of Gaussian 16 at Sun Jan 15 00:46:43 2023.
