 Gaussian 16, Revision A.03,
 Gaussian 16:  ES64L-G16RevA.03 25-Dec-2016

 ---------------------------------------------------------------
 #p ROCCSD(T)/cc-pVTZ Guess=Read SCF=(VeryTight,CDIIS,VShift=10)
 ---------------------------------------------------------------

 ---------
 O2_O2_205
 ---------
 Symbolic Z-matrix:
 Charge = -1 Multiplicity = 4

                         Standard orientation:
 ---------------------------------------------------------------------
 Center     Atomic      Atomic             Coordinates (Angstroms)
 Number     Number       Type             X           Y           Z
 ---------------------------------------------------------------------
      1          8           0        0.000000    0.000000    2.243830
      2          8           0        0.000000    0.000000    3.596210
      3          8           0        0.000000    0.000000   -3.596210
      4          8           0        0.000000    0.000000   -2.243830
 ---------------------------------------------------------------------

 SCF Done:  E(ROHF) =  -299.196694027     A.U. after    7 cycles
 E2 =    -0.9839671180D+00 EUMP2 =    -0.30018066114482D+03
 CCSD(T)
 CCSD(T)= -0.30022486531D+03

 Unable to determine electronic state:  an orbital has unidentified symmetry.
 Alpha  occ. eigenvalues --  -20.49534 -20.49534 -20.44505 -20.44505  -1.32317
 Alpha  occ. eigenvalues --   -1.32316  -0.95133  -0.95123  -0.52348  -0.52346
 Alpha  occ. eigenvalues --   -0.48849  -0.48831  -0.44960  -0.44904  -0.29083
 Alpha  occ. eigenvalues --   -0.29070  -0.27525  -0.27400
 Alpha virt. eigenvalues --    0.49258   0.50591   0.88924   0.90238   0.90257
 Alpha virt. eigenvalues --    0.90438   0.92304   0.92373   0.95806   0.99983
 Alpha virt. eigenvalues --    1.01256   1.01574   1.01718   1.02139   1.12164

 Mulliken charges and spin densities:
               1          2
     1  O   -0.326570   0.569500
     2  O   -0.173430   0.930500
     3  O   -0.173430   0.930500
     4  O   -0.326570   0.569500
 Sum of Mulliken charges =  -1.00000   3.00000

 Dipole moment (field-independent basis, Debye):
    X=             -0.0000    Y=              0.0000    Z=              0.0000  Tot=              0.0000
 Quadrupole moment (field-independent basis, Debye-Ang):
   XX=            -21.8691   YY=            -23.0068   ZZ=            -61.2012
   XY=              0.0000   XZ=              0.0000   YZ=              0.0000

 672268\CCSD=-300.1769235\CCSD(T)=-300.2248653\RMSD=8.507e-09\PG=D*H [C
 Normal termination of Gaussian 16 at Sun Jan 15 08:24:11 2023.
