 Gaussian 16, Revision A.03,
 Gaussian 16:  ES64L-G16RevA.03 25-Dec-2016

 ---------------------------------------------------------------
 #p ROCCSD(T)/cc-pVTZ Guess=Read SCF=(VeryTight,CDIIS,VShift=10)
 ---------------------------------------------------------------

 ---------
 O2_O2_155
 ---------
 Symbolic Z-matrix:
 Charge = -1 Multiplicity = 4

                         Standard orientation:
 ---------------------------------------------------------------------
 Center     Atomic      Atomic             Coordinates (Angstroms)
 Number     Number       Type             X           Y           Z
 ---------------------------------------------------------------------
      1          8           0        0.000000    0.000000    1.889866
      2          8           0        0.000000    0.000000    3.242246
      3          8           0        0.000000    0.000000   -3.242246
      4          8           0        0.000000    0.000000   -1.889866
 ---------------------------------------------------------------------

 SCF Done:  E(ROHF) =  -299.197912218     A.U. after    8 cycles
 E2 =    -0.9823294649D+00 EUMP2 =    -0.30018024168339D+03
 CCSD(T)
 CCSD(T)= -0.30022612889D+03

 Unable to determine electronic state:  an orbital has unidentified symmetry.
 Alpha  occ. eigenvalues --  -20.48723 -20.48723 -20.43933 -20.43933  -1.31634
 Alpha  occ. eigenvalues --   -1.31627  -0.94464  -0.94403  -0.51632  -0.51621
 Alpha  occ. eigenvalues --   -0.48152  -0.48148  -0.44344  -0.44066  -0.28453
 Alpha  occ. eigenvalues --   -0.28369  -0.26819  -0.26749
 Alpha virt. eigenvalues --    0.48426   0.52637   0.86477   0.90806   0.90935
 Alpha virt. eigenvalues --    0.91324   0.92790   0.93144   0.93681   1.01109
 Alpha virt. eigenvalues --    1.01645   1.03196   1.03671   1.09740   1.12820

 Mulliken charges and spin densities:
               1          2
     1  O   -0.317999   0.577315
     2  O   -0.182001   0.922685
     3  O   -0.182001   0.922685
     4  O   -0.317999   0.577315
 Sum of Mulliken charges =  -1.00000   3.00000

 Dipole moment (field-independent basis, Debye):
    X=             -0.0000    Y=              0.0000    Z=              0.0000  Tot=              0.0000
 Quadrupole moment (field-independent basis, Debye-Ang):
   XX=            -21.8717   YY=            -23.0139   ZZ=            -53.1431
   XY=              0.0000   XZ=              0.0000   YZ=              0.0000

 00.1684427\CCSD=-300.178226\CCSD(T)=-300.2261289\RMSD=4.053e-09\PG=D*H
 Normal termination of Gaussian 16 at Sun Jan 15 06:07:00 2023.
