 Gaussian 16, Revision A.03,
 Gaussian 16:  ES64L-G16RevA.03 25-Dec-2016

 ---------------------------------------------------------------
 #p ROCCSD(T)/cc-pVTZ Guess=Read SCF=(VeryTight,CDIIS,VShift=10)
 ---------------------------------------------------------------

 --------
 O2_O2_75
 --------
 Symbolic Z-matrix:
 Charge = -1 Multiplicity = 4

                         Standard orientation:
 ---------------------------------------------------------------------
 Center     Atomic      Atomic             Coordinates (Angstroms)
 Number     Number       Type             X           Y           Z
 ---------------------------------------------------------------------
      1          8           0        0.000000    0.000000    1.323523
      2          8           0        0.000000    0.000000    2.675903
      3          8           0        0.000000    0.000000   -2.675903
      4          8           0        0.000000    0.000000   -1.323523
 ---------------------------------------------------------------------

 SCF Done:  E(ROHF) =  -299.205545810     A.U. after   11 cycles
 E2 =    -0.9772843339D+00 EUMP2 =    -0.30018283014390D+03
 CCSD(T)
 CCSD(T)= -0.30023371151D+03

 Unable to determine electronic state:  an orbital has unidentified symmetry.
 Alpha  occ. eigenvalues --  -20.46759 -20.46759 -20.42795 -20.42794  -1.30202
 Alpha  occ. eigenvalues --   -1.30046  -0.93435  -0.92357  -0.50091  -0.49915
 Alpha  occ. eigenvalues --   -0.46736  -0.46464  -0.43910  -0.41144  -0.27442
 Alpha  occ. eigenvalues --   -0.26450  -0.25576  -0.24898
 Alpha virt. eigenvalues --    0.49987   0.57198   0.90657   0.91518   0.92496
 Alpha virt. eigenvalues --    0.92537   0.92906   0.95105   0.96751   0.97975
 Alpha virt. eigenvalues --    0.99472   1.11616   1.11768   1.13577   1.14168

 Mulliken charges and spin densities:
               1          2
     1  O   -0.290211   0.597767
     2  O   -0.209789   0.902233
     3  O   -0.209789   0.902233
     4  O   -0.290211   0.597767
 Sum of Mulliken charges =  -1.00000   3.00000

 Dipole moment (field-independent basis, Debye):
    X=             -0.0000    Y=              0.0000    Z=              0.0000  Tot=              0.0000
 Quadrupole moment (field-independent basis, Debye-Ang):
   XX=            -21.8758   YY=            -23.0658   ZZ=            -42.9581
   XY=              0.0000   XZ=              0.0000   YZ=              0.0000

 0.1759948\CCSD=-300.185877\CCSD(T)=-300.2337115\RMSD=3.323e-09\PG=D*H
 Normal termination of Gaussian 16 at Sun Jan 15 02:29:24 2023.
