 Gaussian 16, Revision A.03,
 Gaussian 16:  ES64L-G16RevA.03 25-Dec-2016

 ---------------------------------------------------------------
 #p ROCCSD(T)/cc-pVTZ Guess=Read SCF=(VeryTight,CDIIS,VShift=10)
 ---------------------------------------------------------------

 ---------
 O2_O2_159
 ---------
 Symbolic Z-matrix:
 Charge = -1 Multiplicity = 4

                         Standard orientation:
 ---------------------------------------------------------------------
 Center     Atomic      Atomic             Coordinates (Angstroms)
 Number     Number       Type             X           Y           Z
 ---------------------------------------------------------------------
      1          8           0        0.000000    0.000000    1.918183
      2          8           0        0.000000    0.000000    3.270563
      3          8           0        0.000000    0.000000   -3.270563
      4          8           0        0.000000    0.000000   -1.918183
 ---------------------------------------------------------------------

 SCF Done:  E(ROHF) =  -299.197756950     A.U. after    8 cycles
 E2 =    -0.9824822141D+00 EUMP2 =    -0.30018023916443D+03
 CCSD(T)
 CCSD(T)= -0.30022596472D+03

 Unable to determine electronic state:  an orbital has unidentified symmetry.
 Alpha  occ. eigenvalues --  -20.48796 -20.48796 -20.43982 -20.43982  -1.31694
 Alpha  occ. eigenvalues --   -1.31688  -0.94522  -0.94469  -0.51695  -0.51686
 Alpha  occ. eigenvalues --   -0.48214  -0.48209  -0.44393  -0.44147  -0.28506
 Alpha  occ. eigenvalues --   -0.28434  -0.26884  -0.26806
 Alpha virt. eigenvalues --    0.48503   0.52445   0.86725   0.90760   0.90873
 Alpha virt. eigenvalues --    0.91286   0.92758   0.93069   0.93803   1.01170
 Alpha virt. eigenvalues --    1.01693   1.02998   1.03485   1.08594   1.12763

 Mulliken charges and spin densities:
               1          2
     1  O   -0.318809   0.576580
     2  O   -0.181191   0.923420
     3  O   -0.181191   0.923420
     4  O   -0.318809   0.576580
 Sum of Mulliken charges =  -1.00000   3.00000

 Dipole moment (field-independent basis, Debye):
    X=             -0.0000    Y=              0.0000    Z=             -0.0000  Tot=              0.0000
 Quadrupole moment (field-independent basis, Debye-Ang):
   XX=            -21.8714   YY=            -23.0129   ZZ=            -53.7413
   XY=              0.0000   XZ=              0.0000   YZ=              0.0000

 .1682843\CCSD=-300.1780598\CCSD(T)=-300.2259647\RMSD=3.967e-09\PG=D*H
 Normal termination of Gaussian 16 at Sun Jan 15 06:17:34 2023.
