 Gaussian 16, Revision A.03,
 Gaussian 16:  ES64L-G16RevA.03 25-Dec-2016

 ---------------------------------------------------------------
 #p ROCCSD(T)/cc-pVTZ Guess=Read SCF=(VeryTight,CDIIS,VShift=10)
 ---------------------------------------------------------------

 ---------
 O2_O2_255
 ---------
 Symbolic Z-matrix:
 Charge = -1 Multiplicity = 4

                         Standard orientation:
 ---------------------------------------------------------------------
 Center     Atomic      Atomic             Coordinates (Angstroms)
 Number     Number       Type             X           Y           Z
 ---------------------------------------------------------------------
      1          8           0        0.000000    0.000000    2.597795
      2          8           0        0.000000    0.000000    3.950175
      3          8           0        0.000000    0.000000   -3.950175
      4          8           0        0.000000    0.000000   -2.597795
 ---------------------------------------------------------------------

 SCF Done:  E(ROHF) =  -299.196295034     A.U. after    7 cycles
 E2 =    -0.9851711752D+00 EUMP2 =    -0.30018146620915D+03
 CCSD(T)
 CCSD(T)= -0.30022447803D+03

 Unable to determine electronic state:  an orbital has unidentified symmetry.
 Alpha  occ. eigenvalues --  -20.50166 -20.50166 -20.44983 -20.44983  -1.32866
 Alpha  occ. eigenvalues --   -1.32865  -0.95679  -0.95678  -0.52919  -0.52919
 Alpha  occ. eigenvalues --   -0.49398  -0.49379  -0.45506  -0.45498  -0.29611
 Alpha  occ. eigenvalues --   -0.29610  -0.28067  -0.27934
 Alpha virt. eigenvalues --    0.49244   0.49470   0.89196   0.89463   0.89742
 Alpha virt. eigenvalues --    0.89744   0.91813   0.91835   0.96662   0.97237
 Alpha virt. eigenvalues --    1.00830   1.00861   1.01294   1.01451   1.11642

 Mulliken charges and spin densities:
               1          2
     1  O   -0.332684   0.563996
     2  O   -0.167316   0.936004
     3  O   -0.167316   0.936004
     4  O   -0.332684   0.563996
 Sum of Mulliken charges =  -1.00000   3.00000

 Dipole moment (field-independent basis, Debye):
    X=             -0.0000    Y=              0.0000    Z=             -0.0000  Tot=              0.0000
 Quadrupole moment (field-independent basis, Debye-Ang):
   XX=            -21.8677   YY=            -23.0057   ZZ=            -70.5129
   XY=              0.0000   XZ=              0.0000   YZ=              0.0000

 8605\CCSD=-300.1764925\CCSD(T)=-300.224478\RMSD=5.560e-09\PG=D*H [C*(O
 Normal termination of Gaussian 16 at Mon Jan 16 04:18:52 2023.
