 Gaussian 16, Revision A.03,
 Gaussian 16:  ES64L-G16RevA.03 25-Dec-2016

 ---------------------------------------------------------------
 #p ROCCSD(T)/cc-pVTZ Guess=Read SCF=(VeryTight,CDIIS,VShift=10)
 ---------------------------------------------------------------

 ---------
 O2_O2_207
 ---------
 Symbolic Z-matrix:
 Charge = -1 Multiplicity = 4

                         Standard orientation:
 ---------------------------------------------------------------------
 Center     Atomic      Atomic             Coordinates (Angstroms)
 Number     Number       Type             X           Y           Z
 ---------------------------------------------------------------------
      1          8           0        0.000000    0.000000    2.257989
      2          8           0        0.000000    0.000000    3.610369
      3          8           0        0.000000    0.000000   -3.610369
      4          8           0        0.000000    0.000000   -2.257989
 ---------------------------------------------------------------------

 SCF Done:  E(ROHF) =  -299.196668670     A.U. after    7 cycles
 E2 =    -0.9840223951D+00 EUMP2 =    -0.30018069106466D+03
 CCSD(T)
 CCSD(T)= -0.30022484007D+03

 Unable to determine electronic state:  an orbital has unidentified symmetry.
 Alpha  occ. eigenvalues --  -20.49563 -20.49563 -20.44526 -20.44525  -1.32341
 Alpha  occ. eigenvalues --   -1.32340  -0.95157  -0.95148  -0.52373  -0.52372
 Alpha  occ. eigenvalues --   -0.48873  -0.48855  -0.44984  -0.44932  -0.29106
 Alpha  occ. eigenvalues --   -0.29094  -0.27549  -0.27424
 Alpha virt. eigenvalues --    0.49273   0.50529   0.88965   0.90216   0.90234
 Alpha virt. eigenvalues --    0.90392   0.92284   0.92348   0.95882   0.99784
 Alpha virt. eigenvalues --    1.01243   1.01535   1.01705   1.02102   1.12141

 Mulliken charges and spin densities:
               1          2
     1  O   -0.326854   0.569242
     2  O   -0.173146   0.930758
     3  O   -0.173146   0.930758
     4  O   -0.326854   0.569242
 Sum of Mulliken charges =  -1.00000   3.00000

 Dipole moment (field-independent basis, Debye):
    X=             -0.0000    Y=              0.0000    Z=             -0.0000  Tot=              0.0000
 Quadrupole moment (field-independent basis, Debye-Ang):
   XX=            -21.8691   YY=            -23.0067   ZZ=            -61.5496
   XY=              0.0000   XZ=              0.0000   YZ=              0.0000

 00.1672027\CCSD=-300.1768964\CCSD(T)=-300.2248401\RMSD=8.071e-09\PG=D*
 Normal termination of Gaussian 16 at Sun Jan 15 08:29:31 2023.
