 Gaussian 16, Revision A.03,
 Gaussian 16:  ES64L-G16RevA.03 25-Dec-2016

 ---------------------------------------------------------------
 #p ROCCSD(T)/cc-pVTZ Guess=Read SCF=(VeryTight,CDIIS,VShift=10)
 ---------------------------------------------------------------

 ---------
 O2_O2_180
 ---------
 Symbolic Z-matrix:
 Charge = -1 Multiplicity = 4

                         Standard orientation:
 ---------------------------------------------------------------------
 Center     Atomic      Atomic             Coordinates (Angstroms)
 Number     Number       Type             X           Y           Z
 ---------------------------------------------------------------------
      1          8           0        0.000000    0.000000    2.066848
      2          8           0        0.000000    0.000000    3.419228
      3          8           0        0.000000    0.000000   -3.419228
      4          8           0        0.000000    0.000000   -2.066848
 ---------------------------------------------------------------------

 SCF Done:  E(ROHF) =  -299.197133642     A.U. after    8 cycles
 E2 =    -0.9832153220D+00 EUMP2 =    -0.30018034896425D+03
 CCSD(T)
 CCSD(T)= -0.30022531200D+03

 Unable to determine electronic state:  an orbital has unidentified symmetry.
 Alpha  occ. eigenvalues --  -20.49155 -20.49155 -20.44230 -20.44230  -1.31994
 Alpha  occ. eigenvalues --   -1.31991  -0.94813  -0.94789  -0.52010  -0.52005
 Alpha  occ. eigenvalues --   -0.48522  -0.48508  -0.44656  -0.44527  -0.28779
 Alpha  occ. eigenvalues --   -0.28745  -0.27198  -0.27089
 Alpha virt. eigenvalues --    0.48926   0.51506   0.88018   0.90517   0.90570
 Alpha virt. eigenvalues --    0.90974   0.92562   0.92718   0.94665   1.01323
 Alpha virt. eigenvalues --    1.01804   1.02188   1.02722   1.03587   1.12477

 Mulliken charges and spin densities:
               1          2
     1  O   -0.322670   0.573056
     2  O   -0.177330   0.926944
     3  O   -0.177330   0.926944
     4  O   -0.322670   0.573056
 Sum of Mulliken charges =  -1.00000   3.00000

 Dipole moment (field-independent basis, Debye):
    X=             -0.0000    Y=             -0.0000    Z=             -0.0000  Tot=              0.0000
 Quadrupole moment (field-independent basis, Debye-Ang):
   XX=            -21.8703   YY=            -23.0091   ZZ=            -57.0150
   XY=              0.0000   XZ=              0.0000   YZ=              0.0000

 .1676559\CCSD=-300.1773928\CCSD(T)=-300.225312\RMSD=3.749e-09\PG=D*H [
 Normal termination of Gaussian 16 at Sun Jan 15 07:16:30 2023.
