 Gaussian 16, Revision A.03,
 Gaussian 16:  ES64L-G16RevA.03 25-Dec-2016

 ---------------------------------------------------------------
 #p ROCCSD(T)/cc-pVTZ Guess=Read SCF=(VeryTight,CDIIS,VShift=10)
 ---------------------------------------------------------------

 ---------
 O2_O2_299
 ---------
 Symbolic Z-matrix:
 Charge = -1 Multiplicity = 4

                         Standard orientation:
 ---------------------------------------------------------------------
 Center     Atomic      Atomic             Coordinates (Angstroms)
 Number     Number       Type             X           Y           Z
 ---------------------------------------------------------------------
      1          8           0        0.000000    0.000000    2.909283
      2          8           0        0.000000    0.000000    4.261664
      3          8           0        0.000000    0.000000   -4.261664
      4          8           0        0.000000    0.000000   -2.909283
 ---------------------------------------------------------------------

 SCF Done:  E(ROHF) =  -299.196138452     A.U. after    7 cycles
 E2 =    -0.9859932989D+00 EUMP2 =    -0.30018213175100D+03
 CCSD(T)
 CCSD(T)= -0.30022433458D+03

 Unable to determine electronic state:  an orbital has unidentified symmetry.
 Alpha  occ. eigenvalues --  -20.50611 -20.50611 -20.45331 -20.45331  -1.33259
 Alpha  occ. eigenvalues --   -1.33258  -0.96072  -0.96071  -0.53327  -0.53327
 Alpha  occ. eigenvalues --   -0.49791  -0.49773  -0.45908  -0.45907  -0.29994
 Alpha  occ. eigenvalues --   -0.29994  -0.28452  -0.28319
 Alpha virt. eigenvalues --    0.48923   0.48953   0.88937   0.88974   0.89379
 Alpha virt. eigenvalues --    0.89380   0.91445   0.91462   0.96424   0.96490
 Alpha virt. eigenvalues --    1.00439   1.00442   1.00912   1.01042   1.11265

 Mulliken charges and spin densities:
               1          2
     1  O   -0.336673   0.560412
     2  O   -0.163327   0.939588
     3  O   -0.163327   0.939588
     4  O   -0.336673   0.560412
 Sum of Mulliken charges =  -1.00000   3.00000

 Dipole moment (field-independent basis, Debye):
    X=             -0.0000    Y=              0.0000    Z=              0.0000  Tot=              0.0000
 Quadrupole moment (field-independent basis, Debye-Ang):
   XX=            -21.8671   YY=            -23.0057   ZZ=            -79.7444
   XY=              0.0000   XZ=              0.0000   YZ=              0.0000

 667315\CCSD=-300.1763181\CCSD(T)=-300.2243346\RMSD=5.355e-09\PG=D*H [C
 Normal termination of Gaussian 16 at Mon Jan 16 05:12:15 2023.
