 Gaussian 16, Revision A.03,
 Gaussian 16:  ES64L-G16RevA.03 25-Dec-2016

 ---------------------------------------------------------------
 #p ROCCSD(T)/cc-pVTZ Guess=Read SCF=(VeryTight,CDIIS,VShift=10)
 ---------------------------------------------------------------

 ---------
 O2_O2_145
 ---------
 Symbolic Z-matrix:
 Charge = -1 Multiplicity = 4

                         Standard orientation:
 ---------------------------------------------------------------------
 Center     Atomic      Atomic             Coordinates (Angstroms)
 Number     Number       Type             X           Y           Z
 ---------------------------------------------------------------------
      1          8           0        0.000000    0.000000    1.819073
      2          8           0        0.000000    0.000000    3.171453
      3          8           0        0.000000    0.000000   -3.171453
      4          8           0        0.000000    0.000000   -1.819073
 ---------------------------------------------------------------------

 SCF Done:  E(ROHF) =  -299.198364282     A.U. after    8 cycles
 E2 =    -0.9819247683D+00 EUMP2 =    -0.30018028905011D+03
 CCSD(T)
 CCSD(T)= -0.30022660753D+03

 Unable to determine electronic state:  an orbital has unidentified symmetry.
 Alpha  occ. eigenvalues --  -20.48533 -20.48533 -20.43808 -20.43808  -1.31479
 Alpha  occ. eigenvalues --   -1.31469  -0.94318  -0.94230  -0.51468  -0.51453
 Alpha  occ. eigenvalues --   -0.47994  -0.47990  -0.44222  -0.43848  -0.28318
 Alpha  occ. eigenvalues --   -0.28201  -0.26649  -0.26606
 Alpha virt. eigenvalues --    0.48269   0.53130   0.85967   0.90921   0.91099
 Alpha virt. eigenvalues --    0.91389   0.92860   0.93341   0.93439   1.00902
 Alpha virt. eigenvalues --    1.01480   1.03767   1.04209   1.12128   1.12966

 Mulliken charges and spin densities:
               1          2
     1  O   -0.315849   0.579252
     2  O   -0.184151   0.920748
     3  O   -0.184151   0.920748
     4  O   -0.315849   0.579252
 Sum of Mulliken charges =  -1.00000   3.00000

 Dipole moment (field-independent basis, Debye):
    X=             -0.0000    Y=             -0.0000    Z=              0.0000  Tot=              0.0000
 Quadrupole moment (field-independent basis, Debye-Ang):
   XX=            -21.8723   YY=            -23.0170   ZZ=            -51.6838
   XY=              0.0000   XZ=              0.0000   YZ=              0.0000

 00.1689056\CCSD=-300.1787084\CCSD(T)=-300.2266075\RMSD=4.478e-09\PG=D*
 Normal termination of Gaussian 16 at Sun Jan 15 05:37:00 2023.
