 Gaussian 16, Revision A.03,
 Gaussian 16:  ES64L-G16RevA.03 25-Dec-2016

 ---------------------------------------------------------------
 #p ROCCSD(T)/cc-pVTZ Guess=Read SCF=(VeryTight,CDIIS,VShift=10)
 ---------------------------------------------------------------

 --------
 O2_O2_86
 --------
 Symbolic Z-matrix:
 Charge = -1 Multiplicity = 4

                         Standard orientation:
 ---------------------------------------------------------------------
 Center     Atomic      Atomic             Coordinates (Angstroms)
 Number     Number       Type             X           Y           Z
 ---------------------------------------------------------------------
      1          8           0        0.000000    0.000000    1.401395
      2          8           0        0.000000    0.000000    2.753775
      3          8           0        0.000000    0.000000   -2.753775
      4          8           0        0.000000    0.000000   -1.401395
 ---------------------------------------------------------------------

 SCF Done:  E(ROHF) =  -299.203900215     A.U. after   11 cycles
 E2 =    -0.9783515042D+00 EUMP2 =    -0.30018225171943D+03
 CCSD(T)
 CCSD(T)= -0.30023218683D+03

 Unable to determine electronic state:  an orbital has unidentified symmetry.
 Alpha  occ. eigenvalues --  -20.47109 -20.47109 -20.42981 -20.42981  -1.30423
 Alpha  occ. eigenvalues --   -1.30323  -0.93510  -0.92780  -0.50337  -0.50215
 Alpha  occ. eigenvalues --   -0.46949  -0.46769  -0.43828  -0.41798  -0.27548
 Alpha  occ. eigenvalues --   -0.26830  -0.25724  -0.25271
 Alpha virt. eigenvalues --    0.49475   0.56434   0.90843   0.91446   0.92279
 Alpha virt. eigenvalues --    0.92493   0.92638   0.93272   0.94797   0.98379
 Alpha virt. eigenvalues --    0.99672   1.09973   1.10165   1.13469   1.13962

 Mulliken charges and spin densities:
               1          2
     1  O   -0.296268   0.594276
     2  O   -0.203732   0.905724
     3  O   -0.203732   0.905724
     4  O   -0.296268   0.594276
 Sum of Mulliken charges =  -1.00000   3.00000

 Dipole moment (field-independent basis, Debye):
    X=             -0.0000    Y=              0.0000    Z=              0.0000  Tot=              0.0000
 Quadrupole moment (field-independent basis, Debye-Ang):
   XX=            -21.8758   YY=            -23.0547   ZZ=            -44.1456
   XY=              0.0000   XZ=              0.0000   YZ=              0.0000

 0.1744422\CCSD=-300.1843278\CCSD(T)=-300.2321868\RMSD=4.494e-09\PG=D*H
 Normal termination of Gaussian 16 at Sun Jan 15 02:58:19 2023.
