 Gaussian 16, Revision A.03,
 Gaussian 16:  ES64L-G16RevA.03 25-Dec-2016

 ---------------------------------------------------------------
 #p ROCCSD(T)/cc-pVTZ Guess=Read SCF=(VeryTight,CDIIS,VShift=10)
 ---------------------------------------------------------------

 ---------
 O2_O2_284
 ---------
 Symbolic Z-matrix:
 Charge = -1 Multiplicity = 4

                         Standard orientation:
 ---------------------------------------------------------------------
 Center     Atomic      Atomic             Coordinates (Angstroms)
 Number     Number       Type             X           Y           Z
 ---------------------------------------------------------------------
      1          8           0        0.000000    0.000000    2.803094
      2          8           0        0.000000    0.000000    4.155474
      3          8           0        0.000000    0.000000   -4.155474
      4          8           0        0.000000    0.000000   -2.803094
 ---------------------------------------------------------------------

 SCF Done:  E(ROHF) =  -299.196182027     A.U. after    7 cycles
 E2 =    -0.9857327721D+00 EUMP2 =    -0.30018191479914D+03
 CCSD(T)
 CCSD(T)= -0.30022437355D+03

 Unable to determine electronic state:  an orbital has unidentified symmetry.
 Alpha  occ. eigenvalues --  -20.50469 -20.50469 -20.45219 -20.45219  -1.33133
 Alpha  occ. eigenvalues --   -1.33133  -0.95946  -0.95945  -0.53197  -0.53197
 Alpha  occ. eigenvalues --   -0.49665  -0.49647  -0.45779  -0.45777  -0.29871
 Alpha  occ. eigenvalues --   -0.29871  -0.28328  -0.28196
 Alpha virt. eigenvalues --    0.49040   0.49103   0.89039   0.89114   0.89496
 Alpha virt. eigenvalues --    0.89496   0.91564   0.91581   0.96539   0.96684
 Alpha virt. eigenvalues --    1.00567   1.00574   1.01037   1.01171   1.11386

 Mulliken charges and spin densities:
               1          2
     1  O   -0.335432   0.561529
     2  O   -0.164568   0.938471
     3  O   -0.164568   0.938471
     4  O   -0.335432   0.561529
 Sum of Mulliken charges =  -1.00000   3.00000

 Dipole moment (field-independent basis, Debye):
    X=             -0.0000    Y=              0.0000    Z=             -0.0000  Tot=              0.0000
 Quadrupole moment (field-independent basis, Debye-Ang):
   XX=            -21.8672   YY=            -23.0057   ZZ=            -76.4885
   XY=              0.0000   XZ=              0.0000   YZ=              0.0000

 658\CCSD=-300.1763669\CCSD(T)=-300.2243736\RMSD=5.713e-09\PG=D*H [C*(O
 Normal termination of Gaussian 16 at Mon Jan 16 04:52:51 2023.
