 Gaussian 16, Revision A.03,
 Gaussian 16:  ES64L-G16RevA.03 25-Dec-2016

 ---------------------------------------------------------------
 #p ROCCSD(T)/cc-pVTZ Guess=Read SCF=(VeryTight,CDIIS,VShift=10)
 ---------------------------------------------------------------

 ---------
 O2_O2_244
 ---------
 Symbolic Z-matrix:
 Charge = -1 Multiplicity = 4

                         Standard orientation:
 ---------------------------------------------------------------------
 Center     Atomic      Atomic             Coordinates (Angstroms)
 Number     Number       Type             X           Y           Z
 ---------------------------------------------------------------------
      1          8           0        0.000000    0.000000    2.519923
      2          8           0        0.000000    0.000000    3.872303
      3          8           0        0.000000    0.000000   -3.872303
      4          8           0        0.000000    0.000000   -2.519923
 ---------------------------------------------------------------------

 SCF Done:  E(ROHF) =  -299.196352912     A.U. after    7 cycles
 E2 =    -0.9849349075D+00 EUMP2 =    -0.30018128781997D+03
 CCSD(T)
 CCSD(T)= -0.30022453256D+03

 Unable to determine electronic state:  an orbital has unidentified symmetry.
 Alpha  occ. eigenvalues --  -20.50040 -20.50040 -20.44885 -20.44885  -1.32755
 Alpha  occ. eigenvalues --   -1.32755  -0.95569  -0.95567  -0.52804  -0.52804
 Alpha  occ. eigenvalues --   -0.49288  -0.49269  -0.45395  -0.45382  -0.29504
 Alpha  occ. eigenvalues --   -0.29502  -0.27959  -0.27826
 Alpha virt. eigenvalues --    0.49299   0.49651   0.89223   0.89635   0.89843
 Alpha virt. eigenvalues --    0.89847   0.91915   0.91941   0.96632   0.97564
 Alpha virt. eigenvalues --    1.00933   1.00986   1.01395   1.01573   1.11748

 Mulliken charges and spin densities:
               1          2
     1  O   -0.331503   0.565055
     2  O   -0.168497   0.934945
     3  O   -0.168497   0.934945
     4  O   -0.331503   0.565055
 Sum of Mulliken charges =  -1.00000   3.00000

 Dipole moment (field-independent basis, Debye):
    X=             -0.0000    Y=              0.0000    Z=              0.0000  Tot=              0.0000
 Quadrupole moment (field-independent basis, Debye-Ang):
   XX=            -21.8680   YY=            -23.0057   ZZ=            -68.3567
   XY=              0.0000   XZ=              0.0000   YZ=              0.0000

 669112\CCSD=-300.1765559\CCSD(T)=-300.2245326\RMSD=5.333e-09\PG=D*H [C
 Normal termination of Gaussian 16 at Mon Jan 16 04:06:23 2023.
