 Gaussian 16, Revision A.03,
 Gaussian 16:  ES64L-G16RevA.03 25-Dec-2016

 ---------------------------------------------------------------
 #p ROCCSD(T)/cc-pVTZ Guess=Read SCF=(VeryTight,CDIIS,VShift=10)
 ---------------------------------------------------------------

 --------
 O2_O2_36
 --------
 Symbolic Z-matrix:
 Charge = -1 Multiplicity = 4

                         Standard orientation:
 ---------------------------------------------------------------------
 Center     Atomic      Atomic             Coordinates (Angstroms)
 Number     Number       Type             X           Y           Z
 ---------------------------------------------------------------------
      1          8           0        0.000000    0.000000    1.047430
      2          8           0        0.000000    0.000000    2.399810
      3          8           0        0.000000    0.000000   -2.399810
      4          8           0        0.000000    0.000000   -1.047430
 ---------------------------------------------------------------------

 SCF Done:  E(ROHF) =  -299.206466177     A.U. after   10 cycles
 E2 =    -0.9714402024D+00 EUMP2 =    -0.30017790637948D+03
 CCSD(T)
 CCSD(T)= -0.30023321581D+03

 Unable to determine electronic state:  an orbital has unidentified symmetry.
 Alpha  occ. eigenvalues --  -20.45058 -20.45058 -20.41827 -20.41825  -1.29467
 Alpha  occ. eigenvalues --   -1.28694  -0.94128  -0.89871  -0.49165  -0.48497
 Alpha  occ. eigenvalues --   -0.46066  -0.45280  -0.44955  -0.37030  -0.27460
 Alpha  occ. eigenvalues --   -0.25316  -0.24357  -0.22932
 Alpha virt. eigenvalues --    0.51647   0.60969   0.90369   0.92228   0.92350
 Alpha virt. eigenvalues --    0.93069   0.93573   0.96300   0.98518   1.00225
 Alpha virt. eigenvalues --    1.13716   1.13966   1.17324   1.17386   1.17489

 Mulliken charges and spin densities:
               1          2
     1  O   -0.255657   0.607923
     2  O   -0.244343   0.892077
     3  O   -0.244343   0.892077
     4  O   -0.255657   0.607923
 Sum of Mulliken charges =  -1.00000   3.00000

 Dipole moment (field-independent basis, Debye):
    X=             -0.0000    Y=              0.0000    Z=             -0.0000  Tot=              0.0000
 Quadrupole moment (field-independent basis, Debye-Ang):
   XX=            -21.8547   YY=            -23.0938   ZZ=            -39.5317
   XY=              0.0000   XZ=              0.0000   YZ=              0.0000

 757086\CCSD=-300.1854679\CCSD(T)=-300.2332158\RMSD=9.932e-09\PG=D*H [C
 Normal termination of Gaussian 16 at Sun Jan 15 00:44:16 2023.
