 Gaussian 16, Revision A.03,
 Gaussian 16:  ES64L-G16RevA.03 25-Dec-2016

 ---------------------------------------------------------------
 #p ROCCSD(T)/cc-pVTZ Guess=Read SCF=(VeryTight,CDIIS,VShift=10)
 ---------------------------------------------------------------

 ---------
 O2_O2_252
 ---------
 Symbolic Z-matrix:
 Charge = -1 Multiplicity = 4

                         Standard orientation:
 ---------------------------------------------------------------------
 Center     Atomic      Atomic             Coordinates (Angstroms)
 Number     Number       Type             X           Y           Z
 ---------------------------------------------------------------------
      1          8           0        0.000000    0.000000    2.576557
      2          8           0        0.000000    0.000000    3.928937
      3          8           0        0.000000    0.000000   -3.928937
      4          8           0        0.000000    0.000000   -2.576557
 ---------------------------------------------------------------------

 SCF Done:  E(ROHF) =  -299.196309772     A.U. after    7 cycles
 E2 =    -0.9851081280D+00 EUMP2 =    -0.30018141789953D+03
 CCSD(T)
 CCSD(T)= -0.30022449181D+03

 Unable to determine electronic state:  an orbital has unidentified symmetry.
 Alpha  occ. eigenvalues --  -20.50132 -20.50132 -20.44957 -20.44957  -1.32836
 Alpha  occ. eigenvalues --   -1.32836  -0.95650  -0.95648  -0.52889  -0.52888
 Alpha  occ. eigenvalues --   -0.49369  -0.49350  -0.45476  -0.45467  -0.29583
 Alpha  occ. eigenvalues --   -0.29581  -0.28038  -0.27905
 Alpha virt. eigenvalues --    0.49261   0.49517   0.89206   0.89508   0.89769
 Alpha virt. eigenvalues --    0.89772   0.91841   0.91863   0.96660   0.97317
 Alpha virt. eigenvalues --    1.00858   1.00894   1.01322   1.01484   1.11670

 Mulliken charges and spin densities:
               1          2
     1  O   -0.332370   0.564278
     2  O   -0.167630   0.935722
     3  O   -0.167630   0.935722
     4  O   -0.332370   0.564278
 Sum of Mulliken charges =  -1.00000   3.00000

 Dipole moment (field-independent basis, Debye):
    X=             -0.0000    Y=              0.0000    Z=             -0.0000  Tot=              0.0000
 Quadrupole moment (field-independent basis, Debye-Ang):
   XX=            -21.8678   YY=            -23.0057   ZZ=            -69.9188
   XY=              0.0000   XZ=              0.0000   YZ=              0.0000

 668733\CCSD=-300.1765086\CCSD(T)=-300.2244918\RMSD=5.493e-09\PG=D*H [C
 Normal termination of Gaussian 16 at Mon Jan 16 04:15:25 2023.
