 Gaussian 16, Revision A.03,
 Gaussian 16:  ES64L-G16RevA.03 25-Dec-2016

 ---------------------------------------------------------------
 #p ROCCSD(T)/cc-pVTZ Guess=Read SCF=(VeryTight,CDIIS,VShift=10)
 ---------------------------------------------------------------

 ---------
 O2_O2_266
 ---------
 Symbolic Z-matrix:
 Charge = -1 Multiplicity = 4

                         Standard orientation:
 ---------------------------------------------------------------------
 Center     Atomic      Atomic             Coordinates (Angstroms)
 Number     Number       Type             X           Y           Z
 ---------------------------------------------------------------------
      1          8           0        0.000000    0.000000    2.675667
      2          8           0        0.000000    0.000000    4.028047
      3          8           0        0.000000    0.000000   -4.028047
      4          8           0        0.000000    0.000000   -2.675667
 ---------------------------------------------------------------------

 SCF Done:  E(ROHF) =  -299.196246571     A.U. after    7 cycles
 E2 =    -0.9853940036D+00 EUMP2 =    -0.30018164057427D+03
 CCSD(T)
 CCSD(T)= -0.30022443281D+03

 Unable to determine electronic state:  an orbital has unidentified symmetry.
 Alpha  occ. eigenvalues --  -20.50286 -20.50286 -20.45076 -20.45076  -1.32971
 Alpha  occ. eigenvalues --   -1.32971  -0.95784  -0.95783  -0.53029  -0.53029
 Alpha  occ. eigenvalues --   -0.49503  -0.49485  -0.45614  -0.45609  -0.29714
 Alpha  occ. eigenvalues --   -0.29713  -0.28170  -0.28037
 Alpha virt. eigenvalues --    0.49174   0.49316   0.89146   0.89316   0.89646
 Alpha virt. eigenvalues --    0.89647   0.91715   0.91735   0.96641   0.96987
 Alpha virt. eigenvalues --    1.00728   1.00746   1.01194   1.01339   1.11541

 Mulliken charges and spin densities:
               1          2
     1  O   -0.333786   0.563008
     2  O   -0.166214   0.936992
     3  O   -0.166214   0.936992
     4  O   -0.333786   0.563008
 Sum of Mulliken charges =  -1.00000   3.00000

 Dipole moment (field-independent basis, Debye):
    X=             -0.0000    Y=              0.0000    Z=             -0.0000  Tot=              0.0000
 Quadrupole moment (field-independent basis, Debye-Ang):
   XX=            -21.8675   YY=            -23.0056   ZZ=            -72.7299
   XY=              0.0000   XZ=              0.0000   YZ=              0.0000

 668191\CCSD=-300.1764389\CCSD(T)=-300.2244328\RMSD=5.757e-09\PG=D*H [C
 Normal termination of Gaussian 16 at Mon Jan 16 04:31:34 2023.
