 Gaussian 16, Revision A.03,
 Gaussian 16:  ES64L-G16RevA.03 25-Dec-2016

 ---------------------------------------------------------------
 #p ROCCSD(T)/cc-pVTZ Guess=Read SCF=(VeryTight,CDIIS,VShift=10)
 ---------------------------------------------------------------

 --------
 O2_O2_49
 --------
 Symbolic Z-matrix:
 Charge = -1 Multiplicity = 4

                         Standard orientation:
 ---------------------------------------------------------------------
 Center     Atomic      Atomic             Coordinates (Angstroms)
 Number     Number       Type             X           Y           Z
 ---------------------------------------------------------------------
      1          8           0        0.000000    0.000000    1.139461
      2          8           0        0.000000    0.000000    2.491841
      3          8           0        0.000000    0.000000   -2.491841
      4          8           0        0.000000    0.000000   -1.139461
 ---------------------------------------------------------------------

 SCF Done:  E(ROHF) =  -299.208331922     A.U. after   10 cycles
 E2 =    -0.9737991095D+00 EUMP2 =    -0.30018213103158D+03
 CCSD(T)
 CCSD(T)= -0.30023575502D+03

 Unable to determine electronic state:  an orbital has unidentified symmetry.
 Alpha  occ. eigenvalues --  -20.45735 -20.45735 -20.42230 -20.42229  -1.29684
 Alpha  occ. eigenvalues --   -1.29233  -0.93630  -0.90936  -0.49476  -0.49050
 Alpha  occ. eigenvalues --   -0.46253  -0.45557  -0.44573  -0.38842  -0.27349
 Alpha  occ. eigenvalues --   -0.25332  -0.25231  -0.23736
 Alpha virt. eigenvalues --    0.51140   0.59450   0.90394   0.91915   0.92538
 Alpha virt. eigenvalues --    0.92587   0.93199   0.95873   0.97900   0.99672
 Alpha virt. eigenvalues --    1.09355   1.13729   1.14761   1.15535   1.15621

 Mulliken charges and spin densities:
               1          2
     1  O   -0.269933   0.605569
     2  O   -0.230067   0.894431
     3  O   -0.230067   0.894431
     4  O   -0.269933   0.605569
 Sum of Mulliken charges =  -1.00000   3.00000

 Dipole moment (field-independent basis, Debye):
    X=             -0.0000    Y=              0.0000    Z=              0.0000  Tot=              0.0000
 Quadrupole moment (field-independent basis, Debye-Ang):
   XX=            -21.8693   YY=            -23.0908   ZZ=            -40.5067
   XY=              0.0000   XZ=              0.0000   YZ=              0.0000

 1781708\CCSD=-300.1879985\CCSD(T)=-300.235755\RMSD=5.318e-09\PG=D*H [C
 Normal termination of Gaussian 16 at Sun Jan 15 01:19:27 2023.
