 Gaussian 16, Revision A.03,
 Gaussian 16:  ES64L-G16RevA.03 25-Dec-2016

 ---------------------------------------------------------------
 #p ROCCSD(T)/cc-pVTZ Guess=Read SCF=(VeryTight,CDIIS,VShift=10)
 ---------------------------------------------------------------

 ---------
 O2_O2_198
 ---------
 Symbolic Z-matrix:
 Charge = -1 Multiplicity = 4

                         Standard orientation:
 ---------------------------------------------------------------------
 Center     Atomic      Atomic             Coordinates (Angstroms)
 Number     Number       Type             X           Y           Z
 ---------------------------------------------------------------------
      1          8           0        0.000000    0.000000    2.194275
      2          8           0        0.000000    0.000000    3.546655
      3          8           0        0.000000    0.000000   -3.546655
      4          8           0        0.000000    0.000000   -2.194275
 ---------------------------------------------------------------------

 SCF Done:  E(ROHF) =  -299.196792576     A.U. after    7 cycles
 E2 =    -0.9837682374D+00 EUMP2 =    -0.30018056081360D+03
 CCSD(T)
 CCSD(T)= -0.30022496383D+03

 Unable to determine electronic state:  an orbital has unidentified symmetry.
 Alpha  occ. eigenvalues --  -20.49433 -20.49433 -20.44430 -20.44430  -1.32230
 Alpha  occ. eigenvalues --   -1.32229  -0.95046  -0.95034  -0.52257  -0.52255
 Alpha  occ. eigenvalues --   -0.48761  -0.48744  -0.44877  -0.44805  -0.29001
 Alpha  occ. eigenvalues --   -0.28983  -0.27438  -0.27316
 Alpha virt. eigenvalues --    0.49192   0.50822   0.88749   0.90314   0.90340
 Alpha virt. eigenvalues --    0.90597   0.92377   0.92463   0.95515   1.00772
 Alpha virt. eigenvalues --    1.01293   1.01719   1.01758   1.02277   1.12248

 Mulliken charges and spin densities:
               1          2
     1  O   -0.325544   0.570433
     2  O   -0.174456   0.929567
     3  O   -0.174456   0.929567
     4  O   -0.325544   0.570433
 Sum of Mulliken charges =  -1.00000   3.00000

 Dipole moment (field-independent basis, Debye):
    X=             -0.0000    Y=              0.0000    Z=              0.0000  Tot=              0.0000
 Quadrupole moment (field-independent basis, Debye-Ang):
   XX=            -21.8694   YY=            -23.0073   ZZ=            -59.9976
   XY=              0.0000   XZ=              0.0000   YZ=              0.0000

 .1673214\CCSD=-300.1770286\CCSD(T)=-300.2249638\RMSD=9.833e-09\PG=D*H
 Normal termination of Gaussian 16 at Sun Jan 15 08:06:27 2023.
