 Gaussian 16, Revision A.03,
 Gaussian 16:  ES64L-G16RevA.03 25-Dec-2016

 ---------------------------------------------------------------
 #p ROCCSD(T)/cc-pVTZ Guess=Read SCF=(VeryTight,CDIIS,VShift=10)
 ---------------------------------------------------------------

 ---------
 O2_O2_154
 ---------
 Symbolic Z-matrix:
 Charge = -1 Multiplicity = 4

                         Standard orientation:
 ---------------------------------------------------------------------
 Center     Atomic      Atomic             Coordinates (Angstroms)
 Number     Number       Type             X           Y           Z
 ---------------------------------------------------------------------
      1          8           0        0.000000    0.000000    1.882787
      2          8           0        0.000000    0.000000    3.235167
      3          8           0        0.000000    0.000000   -3.235167
      4          8           0        0.000000    0.000000   -1.882787
 ---------------------------------------------------------------------

 SCF Done:  E(ROHF) =  -299.197953184     A.U. after    8 cycles
 E2 =    -0.9822905155D+00 EUMP2 =    -0.30018024369974D+03
 CCSD(T)
 CCSD(T)= -0.30022617225D+03

 Unable to determine electronic state:  an orbital has unidentified symmetry.
 Alpha  occ. eigenvalues --  -20.48705 -20.48705 -20.43921 -20.43921  -1.31619
 Alpha  occ. eigenvalues --   -1.31612  -0.94450  -0.94386  -0.51616  -0.51604
 Alpha  occ. eigenvalues --   -0.48136  -0.48133  -0.44332  -0.44045  -0.28440
 Alpha  occ. eigenvalues --   -0.28353  -0.26802  -0.26735
 Alpha virt. eigenvalues --    0.48408   0.52685   0.86417   0.90818   0.90951
 Alpha virt. eigenvalues --    0.91333   0.92798   0.93163   0.93653   1.01092
 Alpha virt. eigenvalues --    1.01631   1.03248   1.03720   1.10029   1.12834

 Mulliken charges and spin densities:
               1          2
     1  O   -0.317792   0.577502
     2  O   -0.182208   0.922498
     3  O   -0.182208   0.922498
     4  O   -0.317792   0.577502
 Sum of Mulliken charges =  -1.00000   3.00000

 Dipole moment (field-independent basis, Debye):
    X=             -0.0000    Y=             -0.0000    Z=              0.0000  Tot=              0.0000
 Quadrupole moment (field-independent basis, Debye-Ang):
   XX=            -21.8717   YY=            -23.0142   ZZ=            -52.9949
   XY=              0.0000   XZ=              0.0000   YZ=              0.0000

 00.1684846\CCSD=-300.1782698\CCSD(T)=-300.2261722\RMSD=4.082e-09\PG=D*
 Normal termination of Gaussian 16 at Sun Jan 15 06:04:23 2023.
