 Gaussian 16, Revision A.03,
 Gaussian 16:  ES64L-G16RevA.03 25-Dec-2016

 ---------------------------------------------------------------
 #p ROCCSD(T)/cc-pVTZ Guess=Read SCF=(VeryTight,CDIIS,VShift=10)
 ---------------------------------------------------------------

 --------
 O2_O2_96
 --------
 Symbolic Z-matrix:
 Charge = -1 Multiplicity = 4

                         Standard orientation:
 ---------------------------------------------------------------------
 Center     Atomic      Atomic             Coordinates (Angstroms)
 Number     Number       Type             X           Y           Z
 ---------------------------------------------------------------------
      1          8           0        0.000000    0.000000    1.472188
      2          8           0        0.000000    0.000000    2.824568
      3          8           0        0.000000    0.000000   -2.824568
      4          8           0        0.000000    0.000000   -1.472188
 ---------------------------------------------------------------------

 SCF Done:  E(ROHF) =  -299.202535852     A.U. after   11 cycles
 E2 =    -0.9791709560D+00 EUMP2 =    -0.30018170680812D+03
 CCSD(T)
 CCSD(T)= -0.30023086997D+03

 Unable to determine electronic state:  an orbital has unidentified symmetry.
 Alpha  occ. eigenvalues --  -20.47398 -20.47398 -20.43137 -20.43137  -1.30618
 Alpha  occ. eigenvalues --   -1.30551  -0.93617  -0.93105  -0.50550  -0.50464
 Alpha  occ. eigenvalues --   -0.47140  -0.47019  -0.43818  -0.42288  -0.27663
 Alpha  occ. eigenvalues --   -0.27129  -0.25869  -0.25568
 Alpha virt. eigenvalues --    0.49036   0.55801   0.89933   0.91021   0.91383
 Alpha virt. eigenvalues --    0.92054   0.92768   0.93083   0.94525   0.98848
 Alpha virt. eigenvalues --    0.99956   1.08573   1.08806   1.13356   1.13778

 Mulliken charges and spin densities:
               1          2
     1  O   -0.300896   0.591251
     2  O   -0.199104   0.908749
     3  O   -0.199104   0.908749
     4  O   -0.300896   0.591251
 Sum of Mulliken charges =  -1.00000   3.00000

 Dipole moment (field-independent basis, Debye):
    X=             -0.0000    Y=              0.0000    Z=             -0.0000  Tot=              0.0000
 Quadrupole moment (field-independent basis, Debye-Ang):
   XX=            -21.8754   YY=            -23.0456   ZZ=            -45.2894
   XY=              0.0000   XZ=              0.0000   YZ=              0.0000

 0.1731145\CCSD=-300.1829956\CCSD(T)=-300.23087\RMSD=5.133e-09\PG=D*H [
 Normal termination of Gaussian 16 at Sun Jan 15 03:26:06 2023.
