 Gaussian 16, Revision A.03,
 Gaussian 16:  ES64L-G16RevA.03 25-Dec-2016

 ---------------------------------------------------------------
 #p ROCCSD(T)/cc-pVTZ Guess=Read SCF=(VeryTight,CDIIS,VShift=10)
 ---------------------------------------------------------------

 --------
 O2_O2_72
 --------
 Symbolic Z-matrix:
 Charge = -1 Multiplicity = 4

                         Standard orientation:
 ---------------------------------------------------------------------
 Center     Atomic      Atomic             Coordinates (Angstroms)
 Number     Number       Type             X           Y           Z
 ---------------------------------------------------------------------
      1          8           0        0.000000    0.000000    1.302285
      2          8           0        0.000000    0.000000    2.654665
      3          8           0        0.000000    0.000000   -2.654665
      4          8           0        0.000000    0.000000   -1.302285
 ---------------------------------------------------------------------

 SCF Done:  E(ROHF) =  -299.205999555     A.U. after   11 cycles
 E2 =    -0.9769570334D+00 EUMP2 =    -0.30018295658868D+03
 CCSD(T)
 CCSD(T)= -0.30023411581D+03

 Unable to determine electronic state:  an orbital has unidentified symmetry.
 Alpha  occ. eigenvalues --  -20.46657 -20.46657 -20.42740 -20.42740  -1.30141
 Alpha  occ. eigenvalues --   -1.29965  -0.93426  -0.92227  -0.50023  -0.49827
 Alpha  occ. eigenvalues --   -0.46678  -0.46374  -0.43948  -0.40940  -0.27418
 Alpha  occ. eigenvalues --   -0.26335  -0.25539  -0.24786
 Alpha virt. eigenvalues --    0.50126   0.57422   0.90612   0.91542   0.92466
 Alpha virt. eigenvalues --    0.92609   0.92889   0.95190   0.97896   0.97984
 Alpha virt. eigenvalues --    0.99444   1.12074   1.12217   1.13603   1.14224

 Mulliken charges and spin densities:
               1          2
     1  O   -0.288349   0.598732
     2  O   -0.211651   0.901268
     3  O   -0.211651   0.901268
     4  O   -0.288349   0.598732
 Sum of Mulliken charges =  -1.00000   3.00000

 Dipole moment (field-independent basis, Debye):
    X=             -0.0000    Y=             -0.0000    Z=              0.0000  Tot=              0.0000
 Quadrupole moment (field-independent basis, Debye-Ang):
   XX=            -21.8757   YY=            -23.0689   ZZ=            -42.6481
   XY=              0.0000   XZ=              0.0000   YZ=              0.0000

 0.1764099\CCSD=-300.1862894\CCSD(T)=-300.2341158\RMSD=2.912e-09\PG=D*H
 Normal termination of Gaussian 16 at Sun Jan 15 02:21:35 2023.
