 Gaussian 16, Revision A.03,
 Gaussian 16:  ES64L-G16RevA.03 25-Dec-2016

 ---------------------------------------------------------------
 #p ROCCSD(T)/cc-pVTZ Guess=Read SCF=(VeryTight,CDIIS,VShift=10)
 ---------------------------------------------------------------

 --------
 O2_O2_71
 --------
 Symbolic Z-matrix:
 Charge = -1 Multiplicity = 4

                         Standard orientation:
 ---------------------------------------------------------------------
 Center     Atomic      Atomic             Coordinates (Angstroms)
 Number     Number       Type             X           Y           Z
 ---------------------------------------------------------------------
      1          8           0        0.000000    0.000000    1.295205
      2          8           0        0.000000    0.000000    2.647585
      3          8           0        0.000000    0.000000   -2.647585
      4          8           0        0.000000    0.000000   -1.295205
 ---------------------------------------------------------------------

 SCF Done:  E(ROHF) =  -299.206149195     A.U. after   11 cycles
 E2 =    -0.9768440911D+00 EUMP2 =    -0.30018299328591D+03
 CCSD(T)
 CCSD(T)= -0.30023424716D+03

 Unable to determine electronic state:  an orbital has unidentified symmetry.
 Alpha  occ. eigenvalues --  -20.46622 -20.46622 -20.42721 -20.42721  -1.30121
 Alpha  occ. eigenvalues --   -1.29938  -0.93424  -0.92182  -0.50000  -0.49798
 Alpha  occ. eigenvalues --   -0.46659  -0.46343  -0.43963  -0.40869  -0.27410
 Alpha  occ. eigenvalues --   -0.26295  -0.25527  -0.24748
 Alpha virt. eigenvalues --    0.50173   0.57498   0.90598   0.91551   0.92457
 Alpha virt. eigenvalues --    0.92633   0.92881   0.95219   0.97873   0.98411
 Alpha virt. eigenvalues --    0.99437   1.12227   1.12367   1.13611   1.14244

 Mulliken charges and spin densities:
               1          2
     1  O   -0.287706   0.599054
     2  O   -0.212294   0.900946
     3  O   -0.212294   0.900946
     4  O   -0.287706   0.599054
 Sum of Mulliken charges =  -1.00000   3.00000

 Dipole moment (field-independent basis, Debye):
    X=             -0.0000    Y=              0.0000    Z=             -0.0000  Tot=              0.0000
 Quadrupole moment (field-independent basis, Debye-Ang):
   XX=            -21.8757   YY=            -23.0700   ZZ=            -42.5461
   XY=              0.0000   XZ=              0.0000   YZ=              0.0000

 765452\CCSD=-300.1864236\CCSD(T)=-300.2342472\RMSD=2.761e-09\PG=D*H [C
 Normal termination of Gaussian 16 at Sun Jan 15 02:19:05 2023.
