 Gaussian 16, Revision A.03,
 Gaussian 16:  ES64L-G16RevA.03 25-Dec-2016

 ---------------------------------------------------------------
 #p ROCCSD(T)/cc-pVTZ Guess=Read SCF=(VeryTight,CDIIS,VShift=10)
 ---------------------------------------------------------------

 --------
 O2_O2_30
 --------
 Symbolic Z-matrix:
 Charge = -1 Multiplicity = 4

                         Standard orientation:
 ---------------------------------------------------------------------
 Center     Atomic      Atomic             Coordinates (Angstroms)
 Number     Number       Type             X           Y           Z
 ---------------------------------------------------------------------
      1          8           0        0.000000    0.000000    1.004954
      2          8           0        0.000000    0.000000    2.357334
      3          8           0        0.000000    0.000000   -2.357334
      4          8           0        0.000000    0.000000   -1.004954
 ---------------------------------------------------------------------

 SCF Done:  E(ROHF) =  -299.203672949     A.U. after    9 cycles
 E2 =    -0.9702166703D+00 EUMP2 =    -0.30017388961946D+03
 CCSD(T)
 CCSD(T)= -0.30023004548D+03

 Unable to determine electronic state:  an orbital has unidentified symmetry.
 Alpha  occ. eigenvalues --  -20.44687 -20.44686 -20.41599 -20.41598  -1.29395
 Alpha  occ. eigenvalues --   -1.28399  -0.94521  -0.89261  -0.49029  -0.48202
 Alpha  occ. eigenvalues --   -0.46011  -0.45719  -0.44628  -0.35960  -0.27572
 Alpha  occ. eigenvalues --   -0.25348  -0.23867  -0.22488
 Alpha virt. eigenvalues --    0.51856   0.61813   0.90392   0.92082   0.92599
 Alpha virt. eigenvalues --    0.93391   0.93760   0.96515   0.98984   1.00612
 Alpha virt. eigenvalues --    1.13677   1.14206   1.18088   1.18139   1.20346

 Mulliken charges and spin densities:
               1          2
     1  O   -0.248083   0.608219
     2  O   -0.251917   0.891781
     3  O   -0.251917   0.891781
     4  O   -0.248083   0.608219
 Sum of Mulliken charges =  -1.00000   3.00000

 Dipole moment (field-independent basis, Debye):
    X=             -0.0000    Y=              0.0000    Z=              0.0000  Tot=              0.0000
 Quadrupole moment (field-independent basis, Debye-Ang):
   XX=            -21.8423   YY=            -23.0896   ZZ=            -39.1580
   XY=              0.0000   XZ=              0.0000   YZ=              0.0000

 0.1725645\CCSD=-300.1822726\CCSD(T)=-300.2300455\RMSD=6.625e-09\PG=D*H
 Normal termination of Gaussian 16 at Sun Jan 15 00:28:45 2023.
