 Gaussian 16, Revision A.03,
 Gaussian 16:  ES64L-G16RevA.03 25-Dec-2016

 ---------------------------------------------------------------
 #p ROCCSD(T)/cc-pVTZ Guess=Read SCF=(VeryTight,CDIIS,VShift=10)
 ---------------------------------------------------------------

 ---------
 O2_O2_272
 ---------
 Symbolic Z-matrix:
 Charge = -1 Multiplicity = 4

                         Standard orientation:
 ---------------------------------------------------------------------
 Center     Atomic      Atomic             Coordinates (Angstroms)
 Number     Number       Type             X           Y           Z
 ---------------------------------------------------------------------
      1          8           0        0.000000    0.000000    2.718142
      2          8           0        0.000000    0.000000    4.070523
      3          8           0        0.000000    0.000000   -4.070523
      4          8           0        0.000000    0.000000   -2.718142
 ---------------------------------------------------------------------

 SCF Done:  E(ROHF) =  -299.196223278     A.U. after    7 cycles
 E2 =    -0.9855103247D+00 EUMP2 =    -0.30018173360293D+03
 CCSD(T)
 CCSD(T)= -0.30022441120D+03

 Unable to determine electronic state:  an orbital has unidentified symmetry.
 Alpha  occ. eigenvalues --  -20.50348 -20.50348 -20.45125 -20.45125  -1.33026
 Alpha  occ. eigenvalues --   -1.33026  -0.95840  -0.95839  -0.53086  -0.53086
 Alpha  occ. eigenvalues --   -0.49559  -0.49540  -0.45670  -0.45666  -0.29767
 Alpha  occ. eigenvalues --   -0.29767  -0.28224  -0.28091
 Alpha virt. eigenvalues --    0.49131   0.49240   0.89113   0.89244   0.89595
 Alpha virt. eigenvalues --    0.89595   0.91664   0.91682   0.96614   0.96875
 Alpha virt. eigenvalues --    1.00674   1.00686   1.01141   1.01281   1.11488

 Mulliken charges and spin densities:
               1          2
     1  O   -0.334355   0.562497
     2  O   -0.165645   0.937503
     3  O   -0.165645   0.937503
     4  O   -0.334355   0.562497
 Sum of Mulliken charges =  -1.00000   3.00000

 Dipole moment (field-independent basis, Debye):
    X=             -0.0000    Y=              0.0000    Z=              0.0000  Tot=              0.0000
 Quadrupole moment (field-independent basis, Debye-Ang):
   XX=            -21.8674   YY=            -23.0056   ZZ=            -73.9647
   XY=              0.0000   XZ=              0.0000   YZ=              0.0000

 667996\CCSD=-300.1764129\CCSD(T)=-300.2244112\RMSD=5.799e-09\PG=D*H [C
 Normal termination of Gaussian 16 at Mon Jan 16 04:38:33 2023.
