 Gaussian 16, Revision A.03,
 Gaussian 16:  ES64L-G16RevA.03 25-Dec-2016

 ---------------------------------------------------------------
 #p ROCCSD(T)/cc-pVTZ Guess=Read SCF=(VeryTight,CDIIS,VShift=10)
 ---------------------------------------------------------------

 ---------
 O2_O2_268
 ---------
 Symbolic Z-matrix:
 Charge = -1 Multiplicity = 4

                         Standard orientation:
 ---------------------------------------------------------------------
 Center     Atomic      Atomic             Coordinates (Angstroms)
 Number     Number       Type             X           Y           Z
 ---------------------------------------------------------------------
      1          8           0        0.000000    0.000000    2.689826
      2          8           0        0.000000    0.000000    4.042206
      3          8           0        0.000000    0.000000   -4.042206
      4          8           0        0.000000    0.000000   -2.689826
 ---------------------------------------------------------------------

 SCF Done:  E(ROHF) =  -299.196238585     A.U. after    7 cycles
 E2 =    -0.9854331717D+00 EUMP2 =    -0.30018167175652D+03
 CCSD(T)
 CCSD(T)= -0.30022442542D+03

 Unable to determine electronic state:  an orbital has unidentified symmetry.
 Alpha  occ. eigenvalues --  -20.50307 -20.50307 -20.45092 -20.45092  -1.32989
 Alpha  occ. eigenvalues --   -1.32989  -0.95803  -0.95802  -0.53048  -0.53048
 Alpha  occ. eigenvalues --   -0.49522  -0.49503  -0.45633  -0.45628  -0.29732
 Alpha  occ. eigenvalues --   -0.29731  -0.28188  -0.28055
 Alpha virt. eigenvalues --    0.49160   0.49290   0.89136   0.89291   0.89628
 Alpha virt. eigenvalues --    0.89629   0.91698   0.91717   0.96633   0.96948
 Alpha virt. eigenvalues --    1.00710   1.00726   1.01177   1.01319   1.11523

 Mulliken charges and spin densities:
               1          2
     1  O   -0.333978   0.562835
     2  O   -0.166022   0.937165
     3  O   -0.166022   0.937165
     4  O   -0.333978   0.562835
 Sum of Mulliken charges =  -1.00000   3.00000

 Dipole moment (field-independent basis, Debye):
    X=             -0.0000    Y=              0.0000    Z=              0.0000  Tot=              0.0000
 Quadrupole moment (field-independent basis, Debye-Ang):
   XX=            -21.8675   YY=            -23.0056   ZZ=            -73.1395
   XY=              0.0000   XZ=              0.0000   YZ=              0.0000

 668123\CCSD=-300.17643\CCSD(T)=-300.2244254\RMSD=5.778e-09\PG=D*H [C*(
 Normal termination of Gaussian 16 at Mon Jan 16 04:33:49 2023.
