 Gaussian 16, Revision A.03,
 Gaussian 16:  ES64L-G16RevA.03 25-Dec-2016

 ---------------------------------------------------------------
 #p ROCCSD(T)/cc-pVTZ Guess=Read SCF=(VeryTight,CDIIS,VShift=10)
 ---------------------------------------------------------------

 --------
 O2_O2_65
 --------
 Symbolic Z-matrix:
 Charge = -1 Multiplicity = 4

                         Standard orientation:
 ---------------------------------------------------------------------
 Center     Atomic      Atomic             Coordinates (Angstroms)
 Number     Number       Type             X           Y           Z
 ---------------------------------------------------------------------
      1          8           0        0.000000    0.000000    1.252730
      2          8           0        0.000000    0.000000    2.605110
      3          8           0        0.000000    0.000000   -2.605110
      4          8           0        0.000000    0.000000   -1.252730
 ---------------------------------------------------------------------

 SCF Done:  E(ROHF) =  -299.207008803     A.U. after   11 cycles
 E2 =    -0.9761235043D+00 EUMP2 =    -0.30018313230694D+03
 CCSD(T)
 CCSD(T)= -0.30023497638D+03

 Unable to determine electronic state:  an orbital has unidentified symmetry.
 Alpha  occ. eigenvalues --  -20.46404 -20.46404 -20.42604 -20.42604  -1.29999
 Alpha  occ. eigenvalues --   -1.29765  -0.93429  -0.91895  -0.49860  -0.49612
 Alpha  occ. eigenvalues --   -0.46544  -0.46151  -0.44071  -0.40411  -0.27372
 Alpha  occ. eigenvalues --   -0.26044  -0.25459  -0.24505
 Alpha virt. eigenvalues --    0.50448   0.57975   0.90521   0.91613   0.92425
 Alpha virt. eigenvalues --    0.92781   0.92819   0.95392   0.97773   0.99426
 Alpha virt. eigenvalues --    1.01130   1.13147   1.13269   1.13656   1.14360

 Mulliken charges and spin densities:
               1          2
     1  O   -0.283581   0.600967
     2  O   -0.216419   0.899033
     3  O   -0.216419   0.899033
     4  O   -0.283581   0.600967
 Sum of Mulliken charges =  -1.00000   3.00000

 Dipole moment (field-independent basis, Debye):
    X=             -0.0000    Y=              0.0000    Z=              0.0000  Tot=              0.0000
 Quadrupole moment (field-independent basis, Debye-Ang):
   XX=            -21.8750   YY=            -23.0763   ZZ=            -41.9499
   XY=              0.0000   XZ=              0.0000   YZ=              0.0000

 0.177301\CCSD=-300.1871709\CCSD(T)=-300.2349764\RMSD=1.546e-09\PG=D*H
 Normal termination of Gaussian 16 at Sun Jan 15 02:01:23 2023.
