 Gaussian 16, Revision A.03,
 Gaussian 16:  ES64L-G16RevA.03 25-Dec-2016

 ---------------------------------------------------------------
 #p ROCCSD(T)/cc-pVTZ Guess=Read SCF=(VeryTight,CDIIS,VShift=10)
 ---------------------------------------------------------------

 --------
 O2_O2_39
 --------
 Symbolic Z-matrix:
 Charge = -1 Multiplicity = 4

                         Standard orientation:
 ---------------------------------------------------------------------
 Center     Atomic      Atomic             Coordinates (Angstroms)
 Number     Number       Type             X           Y           Z
 ---------------------------------------------------------------------
      1          8           0        0.000000    0.000000    1.068668
      2          8           0        0.000000    0.000000    2.421048
      3          8           0        0.000000    0.000000   -2.421048
      4          8           0        0.000000    0.000000   -1.068668
 ---------------------------------------------------------------------

 SCF Done:  E(ROHF) =  -299.207306918     A.U. after   10 cycles
 E2 =    -0.9720219784D+00 EUMP2 =    -0.30017932889643D+03
 CCSD(T)
 CCSD(T)= -0.30023423026D+03

 Unable to determine electronic state:  an orbital has unidentified symmetry.
 Alpha  occ. eigenvalues --  -20.45228 -20.45228 -20.41930 -20.41929  -1.29512
 Alpha  occ. eigenvalues --   -1.28829  -0.93976  -0.90145  -0.49236  -0.48634
 Alpha  occ. eigenvalues --   -0.46102  -0.45105  -0.45089  -0.37504  -0.27420
 Alpha  occ. eigenvalues --   -0.25311  -0.24580  -0.23135
 Alpha virt. eigenvalues --    0.51535   0.60585   0.90367   0.92235   0.92302
 Alpha virt. eigenvalues --    0.92930   0.93483   0.96197   0.98329   1.00065
 Alpha virt. eigenvalues --    1.13572   1.13727   1.16236   1.16927   1.16994

 Mulliken charges and spin densities:
               1          2
     1  O   -0.259205   0.607556
     2  O   -0.240795   0.892444
     3  O   -0.240795   0.892444
     4  O   -0.259205   0.607556
 Sum of Mulliken charges =  -1.00000   3.00000

 Dipole moment (field-independent basis, Debye):
    X=             -0.0000    Y=              0.0000    Z=              0.0000  Tot=              0.0000
 Quadrupole moment (field-independent basis, Debye-Ang):
   XX=            -21.8593   YY=            -23.0943   ZZ=            -39.7380
   XY=              0.0000   XZ=              0.0000   YZ=              0.0000

 0.1767069\CCSD=-300.1864861\CCSD(T)=-300.2342303\RMSD=9.685e-09\PG=D*H
 Normal termination of Gaussian 16 at Sun Jan 15 00:51:30 2023.
