 Gaussian 16, Revision A.03,
 Gaussian 16:  ES64L-G16RevA.03 25-Dec-2016

 ---------------------------------------------------------------
 #p ROCCSD(T)/cc-pVTZ Guess=Read SCF=(VeryTight,CDIIS,VShift=10)
 ---------------------------------------------------------------

 --------
 O2_O2_74
 --------
 Symbolic Z-matrix:
 Charge = -1 Multiplicity = 4

                         Standard orientation:
 ---------------------------------------------------------------------
 Center     Atomic      Atomic             Coordinates (Angstroms)
 Number     Number       Type             X           Y           Z
 ---------------------------------------------------------------------
      1          8           0        0.000000    0.000000    1.316443
      2          8           0        0.000000    0.000000    2.668823
      3          8           0        0.000000    0.000000   -2.668823
      4          8           0        0.000000    0.000000   -1.316443
 ---------------------------------------------------------------------

 SCF Done:  E(ROHF) =  -299.205697611     A.U. after   11 cycles
 E2 =    -0.9771771122D+00 EUMP2 =    -0.30018287472278D+03
 CCSD(T)
 CCSD(T)= -0.30023384771D+03

 Unable to determine electronic state:  an orbital has unidentified symmetry.
 Alpha  occ. eigenvalues --  -20.46726 -20.46726 -20.42777 -20.42776  -1.30182
 Alpha  occ. eigenvalues --   -1.30020  -0.93431  -0.92315  -0.50069  -0.49886
 Alpha  occ. eigenvalues --   -0.46717  -0.46434  -0.43921  -0.41077  -0.27433
 Alpha  occ. eigenvalues --   -0.26412  -0.25563  -0.24861
 Alpha virt. eigenvalues --    0.50033   0.57272   0.90642   0.91526   0.92485
 Alpha virt. eigenvalues --    0.92561   0.92901   0.95134   0.97154   0.97947
 Alpha virt. eigenvalues --    0.99462   1.11768   1.11917   1.13586   1.14186

 Mulliken charges and spin densities:
               1          2
     1  O   -0.289602   0.598089
     2  O   -0.210398   0.901911
     3  O   -0.210398   0.901911
     4  O   -0.289602   0.598089
 Sum of Mulliken charges =  -1.00000   3.00000

 Dipole moment (field-independent basis, Debye):
    X=             -0.0000    Y=             -0.0000    Z=              0.0000  Tot=              0.0000
 Quadrupole moment (field-independent basis, Debye-Ang):
   XX=            -21.8758   YY=            -23.0668   ZZ=            -42.8541
   XY=              0.0000   XZ=              0.0000   YZ=              0.0000

 0.1761345\CCSD=-300.1860158\CCSD(T)=-300.2338477\RMSD=3.192e-09\PG=D*H
 Normal termination of Gaussian 16 at Sun Jan 15 02:26:45 2023.
