 Gaussian 16, Revision A.03,
 Gaussian 16:  ES64L-G16RevA.03 25-Dec-2016

 ---------------------------------------------------------------
 #p ROCCSD(T)/cc-pVTZ Guess=Read SCF=(VeryTight,CDIIS,VShift=10)
 ---------------------------------------------------------------

 ---------
 O2_O2_289
 ---------
 Symbolic Z-matrix:
 Charge = -1 Multiplicity = 4

                         Standard orientation:
 ---------------------------------------------------------------------
 Center     Atomic      Atomic             Coordinates (Angstroms)
 Number     Number       Type             X           Y           Z
 ---------------------------------------------------------------------
      1          8           0        0.000000    0.000000    2.838490
      2          8           0        0.000000    0.000000    4.190871
      3          8           0        0.000000    0.000000   -4.190871
      4          8           0        0.000000    0.000000   -2.838490
 ---------------------------------------------------------------------

 SCF Done:  E(ROHF) =  -299.196166623     A.U. after    7 cycles
 E2 =    -0.9858216856D+00 EUMP2 =    -0.30018198830842D+03
 CCSD(T)
 CCSD(T)= -0.30022435967D+03

 Unable to determine electronic state:  an orbital has unidentified symmetry.
 Alpha  occ. eigenvalues --  -20.50517 -20.50517 -20.45257 -20.45257  -1.33176
 Alpha  occ. eigenvalues --   -1.33175  -0.95989  -0.95988  -0.53241  -0.53241
 Alpha  occ. eigenvalues --   -0.49708  -0.49690  -0.45823  -0.45821  -0.29913
 Alpha  occ. eigenvalues --   -0.29913  -0.28370  -0.28238
 Alpha virt. eigenvalues --    0.49002   0.49051   0.89006   0.89065   0.89456
 Alpha virt. eigenvalues --    0.89457   0.91523   0.91540   0.96503   0.96615
 Alpha virt. eigenvalues --    1.00524   1.00529   1.00995   1.01127   1.11345

 Mulliken charges and spin densities:
               1          2
     1  O   -0.335858   0.561145
     2  O   -0.164142   0.938855
     3  O   -0.164142   0.938855
     4  O   -0.335858   0.561145
 Sum of Mulliken charges =  -1.00000   3.00000

 Dipole moment (field-independent basis, Debye):
    X=             -0.0000    Y=             -0.0000    Z=              0.0000  Tot=              0.0000
 Quadrupole moment (field-independent basis, Debye-Ang):
   XX=            -21.8672   YY=            -23.0057   ZZ=            -77.5613
   XY=              0.0000   XZ=              0.0000   YZ=              0.0000

 667535\CCSD=-300.1763497\CCSD(T)=-300.2243597\RMSD=5.618e-09\PG=D*H [C
 Normal termination of Gaussian 16 at Mon Jan 16 04:59:03 2023.
