 Gaussian 16, Revision A.03,
 Gaussian 16:  ES64L-G16RevA.03 25-Dec-2016

 ---------------------------------------------------------------
 #p ROCCSD(T)/cc-pVTZ Guess=Read SCF=(VeryTight,CDIIS,VShift=10)
 ---------------------------------------------------------------

 ---------
 O2_O2_271
 ---------
 Symbolic Z-matrix:
 Charge = -1 Multiplicity = 4

                         Standard orientation:
 ---------------------------------------------------------------------
 Center     Atomic      Atomic             Coordinates (Angstroms)
 Number     Number       Type             X           Y           Z
 ---------------------------------------------------------------------
      1          8           0        0.000000    0.000000    2.711063
      2          8           0        0.000000    0.000000    4.063444
      3          8           0        0.000000    0.000000   -4.063444
      4          8           0        0.000000    0.000000   -2.711063
 ---------------------------------------------------------------------

 SCF Done:  E(ROHF) =  -299.196227025     A.U. after    7 cycles
 E2 =    -0.9854911830D+00 EUMP2 =    -0.30018171820770D+03
 CCSD(T)
 CCSD(T)= -0.30022441465D+03

 Unable to determine electronic state:  an orbital has unidentified symmetry.
 Alpha  occ. eigenvalues --  -20.50338 -20.50338 -20.45116 -20.45116  -1.33017
 Alpha  occ. eigenvalues --   -1.33017  -0.95831  -0.95830  -0.53077  -0.53077
 Alpha  occ. eigenvalues --   -0.49549  -0.49531  -0.45661  -0.45657  -0.29759
 Alpha  occ. eigenvalues --   -0.29758  -0.28215  -0.28083
 Alpha virt. eigenvalues --    0.49138   0.49252   0.89119   0.89255   0.89603
 Alpha virt. eigenvalues --    0.89604   0.91672   0.91691   0.96619   0.96892
 Alpha virt. eigenvalues --    1.00683   1.00696   1.01150   1.01290   1.11497

 Mulliken charges and spin densities:
               1          2
     1  O   -0.334262   0.562581
     2  O   -0.165738   0.937419
     3  O   -0.165738   0.937419
     4  O   -0.334262   0.562581
 Sum of Mulliken charges =  -1.00000   3.00000

 Dipole moment (field-independent basis, Debye):
    X=             -0.0000    Y=             -0.0000    Z=             -0.0000  Tot=              0.0000
 Quadrupole moment (field-independent basis, Debye-Ang):
   XX=            -21.8674   YY=            -23.0056   ZZ=            -73.7577
   XY=              0.0000   XZ=              0.0000   YZ=              0.0000

 8027\CCSD=-300.1764171\CCSD(T)=-300.2244146\RMSD=5.796e-09\PG=D*H [C*(
 Normal termination of Gaussian 16 at Mon Jan 16 04:37:23 2023.
