 Gaussian 16, Revision A.03,
 Gaussian 16:  ES64L-G16RevA.03 25-Dec-2016

 ---------------------------------------------------------------
 #p ROCCSD(T)/cc-pVTZ Guess=Read SCF=(VeryTight,CDIIS,VShift=10)
 ---------------------------------------------------------------

 -------
 O2_O2_2
 -------
 Symbolic Z-matrix:
 Charge = -1 Multiplicity = 4

                         Standard orientation:
 ---------------------------------------------------------------------
 Center     Atomic      Atomic             Coordinates (Angstroms)
 Number     Number       Type             X           Y           Z
 ---------------------------------------------------------------------
      1          8           0        0.000000    0.000000    0.806734
      2          8           0        0.000000    0.000000    2.159114
      3          8           0        0.000000    0.000000   -2.159114
      4          8           0        0.000000    0.000000   -0.806734
 ---------------------------------------------------------------------

 SCF Done:  E(ROHF) =  -299.146416625     A.U. after   10 cycles
 E2 =    -0.9652217912D+00 EUMP2 =    -0.30011163841583D+03
 CCSD(T)
 CCSD(T)= -0.30017145300D+03

 Unable to determine electronic state:  an orbital has unidentified symmetry.
 Alpha  occ. eigenvalues --  -20.42066 -20.42066 -20.40251 -20.40250  -1.29978
 Alpha  occ. eigenvalues --   -1.26448  -0.98961  -0.85010  -0.48803  -0.48771
 Alpha  occ. eigenvalues --   -0.46647  -0.46315  -0.42494  -0.29067  -0.27616
 Alpha  occ. eigenvalues --   -0.25990  -0.20533  -0.19539
 Alpha virt. eigenvalues --    0.52119   0.67855   0.91153   0.91584   0.93689
 Alpha virt. eigenvalues --    0.94871   0.94941   0.97803   1.02554   1.03719
 Alpha virt. eigenvalues --    1.12976   1.13379   1.20994   1.21003   1.30154

 Mulliken charges and spin densities:
               1          2
     1  O   -0.196159   0.597319
     2  O   -0.303841   0.902681
     3  O   -0.303841   0.902681
     4  O   -0.196159   0.597319
 Sum of Mulliken charges =  -1.00000   3.00000

 Dipole moment (field-independent basis, Debye):
    X=             -0.0000    Y=             -0.0000    Z=              0.0000  Tot=              0.0000
 Quadrupole moment (field-independent basis, Debye-Ang):
   XX=            -21.6819   YY=            -22.9685   ZZ=            -38.4325
   XY=              0.0000   XZ=              0.0000   YZ=              0.0000

 .1137185\CCSD=-300.122621\CCSD(T)=-300.171453\RMSD=8.528e-09\PG=D*H [C
 Normal termination of Gaussian 16 at Sat Jan 14 23:12:49 2023.
