 Gaussian 16, Revision A.03,
 Gaussian 16:  ES64L-G16RevA.03 25-Dec-2016

 ---------------------------------------------------------------
 #p ROCCSD(T)/cc-pVTZ Guess=Read SCF=(VeryTight,CDIIS,VShift=10)
 ---------------------------------------------------------------

 ---------
 O2_O2_161
 ---------
 Symbolic Z-matrix:
 Charge = -1 Multiplicity = 4

                         Standard orientation:
 ---------------------------------------------------------------------
 Center     Atomic      Atomic             Coordinates (Angstroms)
 Number     Number       Type             X           Y           Z
 ---------------------------------------------------------------------
      1          8           0        0.000000    0.000000    1.932342
      2          8           0        0.000000    0.000000    3.284722
      3          8           0        0.000000    0.000000   -3.284722
      4          8           0        0.000000    0.000000   -1.932342
 ---------------------------------------------------------------------

 SCF Done:  E(ROHF) =  -299.197684253     A.U. after    8 cycles
 E2 =    -0.9825568367D+00 EUMP2 =    -0.30018024108950D+03
 CCSD(T)
 CCSD(T)= -0.30022588797D+03

 Unable to determine electronic state:  an orbital has unidentified symmetry.
 Alpha  occ. eigenvalues --  -20.48832 -20.48832 -20.44007 -20.44006  -1.31724
 Alpha  occ. eigenvalues --   -1.31718  -0.94551  -0.94501  -0.51726  -0.51717
 Alpha  occ. eigenvalues --   -0.48245  -0.48238  -0.44418  -0.44186  -0.28533
 Alpha  occ. eigenvalues --   -0.28465  -0.26915  -0.26834
 Alpha virt. eigenvalues --    0.48544   0.52350   0.86853   0.90737   0.90842
 Alpha virt. eigenvalues --    0.91264   0.92741   0.93033   0.93870   1.01196
 Alpha virt. eigenvalues --    1.01714   1.02905   1.03397   1.08036   1.12734

 Mulliken charges and spin densities:
               1          2
     1  O   -0.319205   0.576221
     2  O   -0.180795   0.923779
     3  O   -0.180795   0.923779
     4  O   -0.319205   0.576221
 Sum of Mulliken charges =  -1.00000   3.00000

 Dipole moment (field-independent basis, Debye):
    X=             -0.0000    Y=             -0.0000    Z=             -0.0000  Tot=              0.0000
 Quadrupole moment (field-independent basis, Debye-Ang):
   XX=            -21.8713   YY=            -23.0125   ZZ=            -54.0434
   XY=              0.0000   XZ=              0.0000   YZ=              0.0000

 00.1682104\CCSD=-300.177982\CCSD(T)=-300.225888\RMSD=3.938e-09\PG=D*H
 Normal termination of Gaussian 16 at Sun Jan 15 06:22:38 2023.
