 Gaussian 16, Revision A.03,
 Gaussian 16:  ES64L-G16RevA.03 25-Dec-2016

 ---------------------------------------------------------------
 #p ROCCSD(T)/cc-pVTZ Guess=Read SCF=(VeryTight,CDIIS,VShift=10)
 ---------------------------------------------------------------

 --------
 O2_O2_34
 --------
 Symbolic Z-matrix:
 Charge = -1 Multiplicity = 4

                         Standard orientation:
 ---------------------------------------------------------------------
 Center     Atomic      Atomic             Coordinates (Angstroms)
 Number     Number       Type             X           Y           Z
 ---------------------------------------------------------------------
      1          8           0        0.000000    0.000000    1.033272
      2          8           0        0.000000    0.000000    2.385652
      3          8           0        0.000000    0.000000   -2.385652
      4          8           0        0.000000    0.000000   -1.033272
 ---------------------------------------------------------------------

 SCF Done:  E(ROHF) =  -299.205717561     A.U. after   10 cycles
 E2 =    -0.9710407004D+00 EUMP2 =    -0.30017675826183D+03
 CCSD(T)
 CCSD(T)= -0.30023234571D+03

 Unable to determine electronic state:  an orbital has unidentified symmetry.
 Alpha  occ. eigenvalues --  -20.44939 -20.44939 -20.41754 -20.41753  -1.29440
 Alpha  occ. eigenvalues --   -1.28599  -0.94245  -0.89677  -0.49119  -0.48401
 Alpha  occ. eigenvalues --   -0.46044  -0.45418  -0.44850  -0.36693  -0.27492
 Alpha  occ. eigenvalues --   -0.25324  -0.24201  -0.22790
 Alpha virt. eigenvalues --    0.51719   0.61239   0.90373   0.92179   0.92430
 Alpha virt. eigenvalues --    0.93171   0.93634   0.96370   0.98660   1.00344
 Alpha virt. eigenvalues --    1.13706   1.14092   1.17583   1.17642   1.18429

 Mulliken charges and spin densities:
               1          2
     1  O   -0.253206   0.608091
     2  O   -0.246794   0.891909
     3  O   -0.246794   0.891909
     4  O   -0.253206   0.608091
 Sum of Mulliken charges =  -1.00000   3.00000

 Dipole moment (field-independent basis, Debye):
    X=             -0.0000    Y=              0.0000    Z=              0.0000  Tot=              0.0000
 Quadrupole moment (field-independent basis, Debye-Ang):
   XX=            -21.8510   YY=            -23.0929   ZZ=            -39.4011
   XY=              0.0000   XZ=              0.0000   YZ=              0.0000

 0.1748482\CCSD=-300.1845924\CCSD(T)=-300.2323457\RMSD=9.141e-09\PG=D*H
 Normal termination of Gaussian 16 at Sun Jan 15 00:38:55 2023.
