 Gaussian 16, Revision A.03,
 Gaussian 16:  ES64L-G16RevA.03 25-Dec-2016

 ---------------------------------------------------------------
 #p ROCCSD(T)/cc-pVTZ Guess=Read SCF=(VeryTight,CDIIS,VShift=10)
 ---------------------------------------------------------------

 ---------
 O2_O2_230
 ---------
 Symbolic Z-matrix:
 Charge = -1 Multiplicity = 4

                         Standard orientation:
 ---------------------------------------------------------------------
 Center     Atomic      Atomic             Coordinates (Angstroms)
 Number     Number       Type             X           Y           Z
 ---------------------------------------------------------------------
      1          8           0        0.000000    0.000000    2.420813
      2          8           0        0.000000    0.000000    3.773193
      3          8           0        0.000000    0.000000   -3.773193
      4          8           0        0.000000    0.000000   -2.420813
 ---------------------------------------------------------------------

 SCF Done:  E(ROHF) =  -299.196445307     A.U. after    7 cycles
 E2 =    -0.9846125603D+00 EUMP2 =    -0.30018105786717D+03
 CCSD(T)
 CCSD(T)= -0.30022462106D+03

 Unable to determine electronic state:  an orbital has unidentified symmetry.
 Alpha  occ. eigenvalues --  -20.49869 -20.49869 -20.44755 -20.44755  -1.32606
 Alpha  occ. eigenvalues --   -1.32606  -0.95421  -0.95417  -0.52650  -0.52649
 Alpha  occ. eigenvalues --   -0.49139  -0.49120  -0.45245  -0.45223  -0.29361
 Alpha  occ. eigenvalues --   -0.29356  -0.27812  -0.27681
 Alpha virt. eigenvalues --    0.49337   0.49927   0.89208   0.89892   0.89979
 Alpha virt. eigenvalues --    0.89985   0.92051   0.92085   0.96486   0.98147
 Alpha virt. eigenvalues --    1.01061   1.01166   1.01522   1.01747   1.11889

 Mulliken charges and spin densities:
               1          2
     1  O   -0.329873   0.566518
     2  O   -0.170127   0.933482
     3  O   -0.170127   0.933482
     4  O   -0.329873   0.566518
 Sum of Mulliken charges =  -1.00000   3.00000

 Dipole moment (field-independent basis, Debye):
    X=             -0.0000    Y=              0.0000    Z=              0.0000  Tot=              0.0000
 Quadrupole moment (field-independent basis, Debye-Ang):
   XX=            -21.8683   YY=            -23.0059   ZZ=            -65.7003
   XY=              0.0000   XZ=              0.0000   YZ=              0.0000

 669944\CCSD=-300.1766563\CCSD(T)=-300.2246211\RMSD=5.424e-09\PG=D*H [C
 Normal termination of Gaussian 16 at Mon Jan 16 03:48:01 2023.
