 Gaussian 16, Revision A.03,
 Gaussian 16:  ES64L-G16RevA.03 25-Dec-2016

 ---------------------------------------------------------------
 #p ROCCSD(T)/cc-pVTZ Guess=Read SCF=(VeryTight,CDIIS,VShift=10)
 ---------------------------------------------------------------

 --------
 O2_O2_95
 --------
 Symbolic Z-matrix:
 Charge = -1 Multiplicity = 4

                         Standard orientation:
 ---------------------------------------------------------------------
 Center     Atomic      Atomic             Coordinates (Angstroms)
 Number     Number       Type             X           Y           Z
 ---------------------------------------------------------------------
      1          8           0        0.000000    0.000000    1.465108
      2          8           0        0.000000    0.000000    2.817488
      3          8           0        0.000000    0.000000   -2.817488
      4          8           0        0.000000    0.000000   -1.465108
 ---------------------------------------------------------------------

 SCF Done:  E(ROHF) =  -299.202664507     A.U. after   11 cycles
 E2 =    -0.9790944892D+00 EUMP2 =    -0.30018175899643D+03
 CCSD(T)
 CCSD(T)= -0.30023099589D+03

 Unable to determine electronic state:  an orbital has unidentified symmetry.
 Alpha  occ. eigenvalues --  -20.47370 -20.47370 -20.43122 -20.43122  -1.30599
 Alpha  occ. eigenvalues --   -1.30529  -0.93605  -0.93075  -0.50529  -0.50440
 Alpha  occ. eigenvalues --   -0.47121  -0.46995  -0.43817  -0.42243  -0.27651
 Alpha  occ. eigenvalues --   -0.27101  -0.25854  -0.25540
 Alpha virt. eigenvalues --    0.49078   0.55862   0.90173   0.91004   0.91389
 Alpha virt. eigenvalues --    0.92076   0.92756   0.93084   0.94552   0.98798
 Alpha virt. eigenvalues --    0.99924   1.08708   1.08936   1.13367   1.13796

 Mulliken charges and spin densities:
               1          2
     1  O   -0.300466   0.591545
     2  O   -0.199534   0.908455
     3  O   -0.199534   0.908455
     4  O   -0.300466   0.591545
 Sum of Mulliken charges =  -1.00000   3.00000

 Dipole moment (field-independent basis, Debye):
    X=             -0.0000    Y=              0.0000    Z=             -0.0000  Tot=              0.0000
 Quadrupole moment (field-independent basis, Debye-Ang):
   XX=            -21.8755   YY=            -23.0465   ZZ=            -45.1724
   XY=              0.0000   XZ=              0.0000   YZ=              0.0000

 173241\CCSD=-300.1831228\CCSD(T)=-300.2309959\RMSD=5.087e-09\PG=D*H [C
 Normal termination of Gaussian 16 at Sun Jan 15 03:23:33 2023.
