 Gaussian 16, Revision A.03,
 Gaussian 16:  ES64L-G16RevA.03 25-Dec-2016

 ---------------------------------------------------------------
 #p ROCCSD(T)/cc-pVTZ Guess=Read SCF=(VeryTight,CDIIS,VShift=10)
 ---------------------------------------------------------------

 ---------
 O2_O2_240
 ---------
 Symbolic Z-matrix:
 Charge = -1 Multiplicity = 4

                         Standard orientation:
 ---------------------------------------------------------------------
 Center     Atomic      Atomic             Coordinates (Angstroms)
 Number     Number       Type             X           Y           Z
 ---------------------------------------------------------------------
      1          8           0        0.000000    0.000000    2.491606
      2          8           0        0.000000    0.000000    3.843986
      3          8           0        0.000000    0.000000   -3.843986
      4          8           0        0.000000    0.000000   -2.491606
 ---------------------------------------------------------------------

 SCF Done:  E(ROHF) =  -299.196376875     A.U. after    7 cycles
 E2 =    -0.9848453937D+00 EUMP2 =    -0.30018122226860D+03
 CCSD(T)
 CCSD(T)= -0.30022455536D+03

 Unable to determine electronic state:  an orbital has unidentified symmetry.
 Alpha  occ. eigenvalues --  -20.49992 -20.49992 -20.44849 -20.44849  -1.32713
 Alpha  occ. eigenvalues --   -1.32713  -0.95528  -0.95525  -0.52761  -0.52761
 Alpha  occ. eigenvalues --   -0.49246  -0.49227  -0.45353  -0.45338  -0.29464
 Alpha  occ. eigenvalues --   -0.29461  -0.27918  -0.27786
 Alpha virt. eigenvalues --    0.49315   0.49724   0.89226   0.89704   0.89881
 Alpha virt. eigenvalues --    0.89885   0.91953   0.91981   0.96605   0.97708
 Alpha virt. eigenvalues --    1.00970   1.01035   1.01432   1.01621   1.11787

 Mulliken charges and spin densities:
               1          2
     1  O   -0.331052   0.565460
     2  O   -0.168948   0.934540
     3  O   -0.168948   0.934540
     4  O   -0.331052   0.565460
 Sum of Mulliken charges =  -1.00000   3.00000

 Dipole moment (field-independent basis, Debye):
    X=             -0.0000    Y=              0.0000    Z=              0.0000  Tot=              0.0000
 Quadrupole moment (field-independent basis, Debye-Ang):
   XX=            -21.8681   YY=            -23.0058   ZZ=            -67.5877
   XY=              0.0000   XZ=              0.0000   YZ=              0.0000

 669326\CCSD=-300.176582\CCSD(T)=-300.2245554\RMSD=5.291e-09\PG=D*H [C*
 Normal termination of Gaussian 16 at Mon Jan 16 03:59:55 2023.
