 Gaussian 16, Revision A.03,
 Gaussian 16:  ES64L-G16RevA.03 25-Dec-2016

 ---------------------------------------------------------------
 #p ROCCSD(T)/cc-pVTZ Guess=Read SCF=(VeryTight,CDIIS,VShift=10)
 ---------------------------------------------------------------

 ---------
 O2_O2_295
 ---------
 Symbolic Z-matrix:
 Charge = -1 Multiplicity = 4

                         Standard orientation:
 ---------------------------------------------------------------------
 Center     Atomic      Atomic             Coordinates (Angstroms)
 Number     Number       Type             X           Y           Z
 ---------------------------------------------------------------------
      1          8           0        0.000000    0.000000    2.880967
      2          8           0        0.000000    0.000000    4.233347
      3          8           0        0.000000    0.000000   -4.233347
      4          8           0        0.000000    0.000000   -2.880967
 ---------------------------------------------------------------------

 SCF Done:  E(ROHF) =  -299.196149326     A.U. after    7 cycles
 E2 =    -0.9859256214D+00 EUMP2 =    -0.30018207494766D+03
 CCSD(T)
 CCSD(T)= -0.30022434422D+03

 Unable to determine electronic state:  an orbital has unidentified symmetry.
 Alpha  occ. eigenvalues --  -20.50574 -20.50574 -20.45302 -20.45302  -1.33226
 Alpha  occ. eigenvalues --   -1.33226  -0.96039  -0.96038  -0.53293  -0.53293
 Alpha  occ. eigenvalues --   -0.49758  -0.49740  -0.45874  -0.45873  -0.29962
 Alpha  occ. eigenvalues --   -0.29962  -0.28419  -0.28287
 Alpha virt. eigenvalues --    0.48954   0.48991   0.88965   0.89010   0.89410
 Alpha virt. eigenvalues --    0.89410   0.91476   0.91493   0.96456   0.96538
 Alpha virt. eigenvalues --    1.00473   1.00476   1.00945   1.01075   1.11296

 Mulliken charges and spin densities:
               1          2
     1  O   -0.336353   0.560700
     2  O   -0.163647   0.939300
     3  O   -0.163647   0.939300
     4  O   -0.336353   0.560700
 Sum of Mulliken charges =  -1.00000   3.00000

 Dipole moment (field-independent basis, Debye):
    X=             -0.0000    Y=             -0.0000    Z=              0.0000  Tot=              0.0000
 Quadrupole moment (field-independent basis, Debye-Ang):
   XX=            -21.8671   YY=            -23.0057   ZZ=            -78.8652
   XY=              0.0000   XZ=              0.0000   YZ=              0.0000

 667399\CCSD=-300.1763303\CCSD(T)=-300.2243442\RMSD=5.470e-09\PG=D*H [C
 Normal termination of Gaussian 16 at Mon Jan 16 05:07:27 2023.
