 Gaussian 16, Revision A.03,
 Gaussian 16:  ES64L-G16RevA.03 25-Dec-2016

 ---------------------------------------------------------------
 #p ROCCSD(T)/cc-pVTZ Guess=Read SCF=(VeryTight,CDIIS,VShift=10)
 ---------------------------------------------------------------

 --------
 O2_O2_56
 --------
 Symbolic Z-matrix:
 Charge = -1 Multiplicity = 4

                         Standard orientation:
 ---------------------------------------------------------------------
 Center     Atomic      Atomic             Coordinates (Angstroms)
 Number     Number       Type             X           Y           Z
 ---------------------------------------------------------------------
      1          8           0        0.000000    0.000000    1.189016
      2          8           0        0.000000    0.000000    2.541396
      3          8           0        0.000000    0.000000   -2.541396
      4          8           0        0.000000    0.000000   -1.189016
 ---------------------------------------------------------------------

 SCF Done:  E(ROHF) =  -299.208023233     A.U. after   10 cycles
 E2 =    -0.9748923325D+00 EUMP2 =    -0.30018291556508D+03
 CCSD(T)
 CCSD(T)= -0.30023572211D+03

 Unable to determine electronic state:  an orbital has unidentified symmetry.
 Alpha  occ. eigenvalues --  -20.46046 -20.46046 -20.42407 -20.42406  -1.29819
 Alpha  occ. eigenvalues --   -1.29481  -0.93500  -0.91395  -0.49645  -0.49309
 Alpha  occ. eigenvalues --   -0.46376  -0.45833  -0.44310  -0.39601  -0.27343
 Alpha  occ. eigenvalues --   -0.25616  -0.25377  -0.24097
 Alpha virt. eigenvalues --    0.50845   0.58762   0.90436   0.91754   0.92463
 Alpha virt. eigenvalues --    0.92680   0.93012   0.95659   0.97768   0.99512
 Alpha virt. eigenvalues --    1.05642   1.13707   1.14509   1.14550   1.14609

 Mulliken charges and spin densities:
               1          2
     1  O   -0.276422   0.603694
     2  O   -0.223578   0.896306
     3  O   -0.223578   0.896306
     4  O   -0.276422   0.603694
 Sum of Mulliken charges =  -1.00000   3.00000

 Dipole moment (field-independent basis, Debye):
    X=             -0.0000    Y=             -0.0000    Z=             -0.0000  Tot=              0.0000
 Quadrupole moment (field-independent basis, Debye-Ang):
   XX=            -21.8728   YY=            -23.0852   ZZ=            -41.1094
   XY=              0.0000   XZ=              0.0000   YZ=              0.0000

 0.1780952\CCSD=-300.1879454\CCSD(T)=-300.2357221\RMSD=7.865e-09\PG=D*H
 Normal termination of Gaussian 16 at Sun Jan 15 01:37:03 2023.
