 Gaussian 16, Revision A.03,
 Gaussian 16:  ES64L-G16RevA.03 25-Dec-2016

 ---------------------------------------------------------------
 #p ROCCSD(T)/cc-pVTZ Guess=Read SCF=(VeryTight,CDIIS,VShift=10)
 ---------------------------------------------------------------

 ---------
 O2_O2_118
 ---------
 Symbolic Z-matrix:
 Charge = -1 Multiplicity = 4

                         Standard orientation:
 ---------------------------------------------------------------------
 Center     Atomic      Atomic             Coordinates (Angstroms)
 Number     Number       Type             X           Y           Z
 ---------------------------------------------------------------------
      1          8           0        0.000000    0.000000    1.627932
      2          8           0        0.000000    0.000000    2.980312
      3          8           0        0.000000    0.000000   -2.980312
      4          8           0        0.000000    0.000000   -1.627932
 ---------------------------------------------------------------------

 SCF Done:  E(ROHF) =  -299.200179984     A.U. after    8 cycles
 E2 =    -0.9806096364D+00 EUMP2 =    -0.30018078961993D+03
 CCSD(T)
 CCSD(T)= -0.30022850446D+03

 Unable to determine electronic state:  an orbital has unidentified symmetry.
 Alpha  occ. eigenvalues --  -20.47956 -20.47956 -20.43453 -20.43453  -1.31026
 Alpha  occ. eigenvalues --   -1.30997  -0.93916  -0.93683  -0.50988  -0.50948
 Alpha  occ. eigenvalues --   -0.47542  -0.47498  -0.43938  -0.43121  -0.27948
 Alpha  occ. eigenvalues --   -0.27674  -0.26202  -0.26115
 Alpha virt. eigenvalues --    0.48340   0.54541   0.86410   0.91205   0.91323
 Alpha virt. eigenvalues --    0.91594   0.92925   0.93131   0.93955   0.99936
 Alpha virt. eigenvalues --    1.00724   1.05968   1.06299   1.13061   1.13394

 Mulliken charges and spin densities:
               1          2
     1  O   -0.308829   0.585292
     2  O   -0.191171   0.914708
     3  O   -0.191171   0.914708
     4  O   -0.308829   0.585292
 Sum of Mulliken charges =  -1.00000   3.00000

 Dipole moment (field-independent basis, Debye):
    X=             -0.0000    Y=              0.0000    Z=              0.0000  Tot=              0.0000
 Quadrupole moment (field-independent basis, Debye-Ang):
   XX=            -21.8740   YY=            -23.0296   ZZ=            -48.0030
   XY=              0.0000   XZ=              0.0000   YZ=              0.0000

 7076\CCSD=-300.1806132\CCSD(T)=-300.2285045\RMSD=7.069e-09\PG=D*H [C*(
 Normal termination of Gaussian 16 at Sun Jan 15 04:25:33 2023.
