 Gaussian 16, Revision A.03,
 Gaussian 16:  ES64L-G16RevA.03 25-Dec-2016

 ---------------------------------------------------------------
 #p ROCCSD(T)/cc-pVTZ Guess=Read SCF=(VeryTight,CDIIS,VShift=10)
 ---------------------------------------------------------------

 ---------
 O2_O2_131
 ---------
 Symbolic Z-matrix:
 Charge = -1 Multiplicity = 4

                         Standard orientation:
 ---------------------------------------------------------------------
 Center     Atomic      Atomic             Coordinates (Angstroms)
 Number     Number       Type             X           Y           Z
 ---------------------------------------------------------------------
      1          8           0        0.000000    0.000000    1.719962
      2          8           0        0.000000    0.000000    3.072343
      3          8           0        0.000000    0.000000   -3.072343
      4          8           0        0.000000    0.000000   -1.719962
 ---------------------------------------------------------------------

 SCF Done:  E(ROHF) =  -299.199180993     A.U. after    8 cycles
 E2 =    -0.9812907770D+00 EUMP2 =    -0.30018047177036D+03
 CCSD(T)
 CCSD(T)= -0.30022746785D+03

 Unable to determine electronic state:  an orbital has unidentified symmetry.
 Alpha  occ. eigenvalues --  -20.48246 -20.48246 -20.43628 -20.43628  -1.31250
 Alpha  occ. eigenvalues --   -1.31233  -0.94109  -0.93963  -0.51227  -0.51201
 Alpha  occ. eigenvalues --   -0.47766  -0.47745  -0.44063  -0.43501  -0.28126
 Alpha  occ. eigenvalues --   -0.27943  -0.26399  -0.26388
 Alpha virt. eigenvalues --    0.48195   0.53848   0.85764   0.91075   0.91346
 Alpha virt. eigenvalues --    0.91400   0.92922   0.93229   0.93646   1.00474
 Alpha virt. eigenvalues --    1.01139   1.04776   1.05165   1.12830   1.13182

 Mulliken charges and spin densities:
               1          2
     1  O   -0.312476   0.582223
     2  O   -0.187524   0.917777
     3  O   -0.187524   0.917777
     4  O   -0.312476   0.582223
 Sum of Mulliken charges =  -1.00000   3.00000

 Dipole moment (field-independent basis, Debye):
    X=             -0.0000    Y=              0.0000    Z=              0.0000  Tot=              0.0000
 Quadrupole moment (field-independent basis, Debye-Ang):
   XX=            -21.8732   YY=            -23.0226   ZZ=            -49.7278
   XY=              0.0000   XZ=              0.0000   YZ=              0.0000

 .1697426\CCSD=-300.1795725\CCSD(T)=-300.2274679\RMSD=5.565e-09\PG=D*H
 Normal termination of Gaussian 16 at Sun Jan 15 04:58:51 2023.
