 Gaussian 16, Revision A.03,
 Gaussian 16:  ES64L-G16RevA.03 25-Dec-2016

 ---------------------------------------------------------------
 #p ROCCSD(T)/cc-pVTZ Guess=Read SCF=(VeryTight,CDIIS,VShift=10)
 ---------------------------------------------------------------

 ---------
 O2_O2_147
 ---------
 Symbolic Z-matrix:
 Charge = -1 Multiplicity = 4

                         Standard orientation:
 ---------------------------------------------------------------------
 Center     Atomic      Atomic             Coordinates (Angstroms)
 Number     Number       Type             X           Y           Z
 ---------------------------------------------------------------------
      1          8           0        0.000000    0.000000    1.833232
      2          8           0        0.000000    0.000000    3.185612
      3          8           0        0.000000    0.000000   -3.185612
      4          8           0        0.000000    0.000000   -1.833232
 ---------------------------------------------------------------------

 SCF Done:  E(ROHF) =  -299.198265986     A.U. after    8 cycles
 E2 =    -0.9820085491D+00 EUMP2 =    -0.30018027453468D+03
 CCSD(T)
 CCSD(T)= -0.30022650348D+03

 Unable to determine electronic state:  an orbital has unidentified symmetry.
 Alpha  occ. eigenvalues --  -20.48572 -20.48572 -20.43834 -20.43834  -1.31510
 Alpha  occ. eigenvalues --   -1.31501  -0.94347  -0.94265  -0.51502  -0.51487
 Alpha  occ. eigenvalues --   -0.48025  -0.48023  -0.44246  -0.43894  -0.28345
 Alpha  occ. eigenvalues --   -0.28236  -0.26684  -0.26635
 Alpha virt. eigenvalues --    0.48295   0.53030   0.86051   0.90898   0.91065
 Alpha virt. eigenvalues --    0.91380   0.92848   0.93300   0.93481   1.00950
 Alpha virt. eigenvalues --    1.01518   1.03643   1.04093   1.11812   1.12936

 Mulliken charges and spin densities:
               1          2
     1  O   -0.316294   0.578852
     2  O   -0.183706   0.921148
     3  O   -0.183706   0.921148
     4  O   -0.316294   0.578852
 Sum of Mulliken charges =  -1.00000   3.00000

 Dipole moment (field-independent basis, Debye):
    X=             -0.0000    Y=              0.0000    Z=              0.0000  Tot=              0.0000
 Quadrupole moment (field-independent basis, Debye-Ang):
   XX=            -21.8721   YY=            -23.0163   ZZ=            -51.9716
   XY=              0.0000   XZ=              0.0000   YZ=              0.0000

 .1688048\CCSD=-300.1786037\CCSD(T)=-300.2265035\RMSD=4.368e-09\PG=D*H
 Normal termination of Gaussian 16 at Sun Jan 15 05:42:44 2023.
