 Gaussian 16, Revision A.03,
 Gaussian 16:  ES64L-G16RevA.03 25-Dec-2016

 ---------------------------------------------------------------
 #p ROCCSD(T)/cc-pVTZ Guess=Read SCF=(VeryTight,CDIIS,VShift=10)
 ---------------------------------------------------------------

 --------
 O2_O2_53
 --------
 Symbolic Z-matrix:
 Charge = -1 Multiplicity = 4

                         Standard orientation:
 ---------------------------------------------------------------------
 Center     Atomic      Atomic             Coordinates (Angstroms)
 Number     Number       Type             X           Y           Z
 ---------------------------------------------------------------------
      1          8           0        0.000000    0.000000    1.167778
      2          8           0        0.000000    0.000000    2.520158
      3          8           0        0.000000    0.000000   -2.520158
      4          8           0        0.000000    0.000000   -1.167778
 ---------------------------------------------------------------------

 SCF Done:  E(ROHF) =  -299.208226120     A.U. after   10 cycles
 E2 =    -0.9744388099D+00 EUMP2 =    -0.30018266492980D+03
 CCSD(T)
 CCSD(T)= -0.30023581418D+03

 Unable to determine electronic state:  an orbital has unidentified symmetry.
 Alpha  occ. eigenvalues --  -20.45917 -20.45917 -20.42334 -20.42333  -1.29760
 Alpha  occ. eigenvalues --   -1.29378  -0.93547  -0.91206  -0.49573  -0.49201
 Alpha  occ. eigenvalues --   -0.46322  -0.45718  -0.44414  -0.39291  -0.27342
 Alpha  occ. eigenvalues --   -0.25457  -0.25355  -0.23948
 Alpha virt. eigenvalues --    0.50973   0.59048   0.90416   0.91816   0.92505
 Alpha virt. eigenvalues --    0.92622   0.93091   0.95750   0.97809   0.99570
 Alpha virt. eigenvalues --    1.07227   1.13718   1.14626   1.14953   1.15047

 Mulliken charges and spin densities:
               1          2
     1  O   -0.273744   0.604533
     2  O   -0.226256   0.895467
     3  O   -0.226256   0.895467
     4  O   -0.273744   0.604533
 Sum of Mulliken charges =  -1.00000   3.00000

 Dipole moment (field-independent basis, Debye):
    X=             -0.0000    Y=             -0.0000    Z=              0.0000  Tot=              0.0000
 Quadrupole moment (field-independent basis, Debye-Ang):
   XX=            -21.8716   YY=            -23.0878   ZZ=            -40.8452
   XY=              0.0000   XZ=              0.0000   YZ=              0.0000

 0.1782052\CCSD=-300.1880467\CCSD(T)=-300.2358142\RMSD=6.834e-09\PG=D*H
 Normal termination of Gaussian 16 at Sun Jan 15 01:29:19 2023.
