 Gaussian 16, Revision A.03,
 Gaussian 16:  ES64L-G16RevA.03 25-Dec-2016

 ---------------------------------------------------------------
 #p ROCCSD(T)/cc-pVTZ Guess=Read SCF=(VeryTight,CDIIS,VShift=10)
 ---------------------------------------------------------------

 ---------
 O2_O2_278
 ---------
 Symbolic Z-matrix:
 Charge = -1 Multiplicity = 4

                         Standard orientation:
 ---------------------------------------------------------------------
 Center     Atomic      Atomic             Coordinates (Angstroms)
 Number     Number       Type             X           Y           Z
 ---------------------------------------------------------------------
      1          8           0        0.000000    0.000000    2.760619
      2          8           0        0.000000    0.000000    4.112999
      3          8           0        0.000000    0.000000   -4.112999
      4          8           0        0.000000    0.000000   -2.760619
 ---------------------------------------------------------------------

 SCF Done:  E(ROHF) =  -299.196201839     A.U. after    7 cycles
 E2 =    -0.9856231936D+00 EUMP2 =    -0.30018182503260D+03
 CCSD(T)
 CCSD(T)= -0.30022439155D+03

 Unable to determine electronic state:  an orbital has unidentified symmetry.
 Alpha  occ. eigenvalues --  -20.50410 -20.50410 -20.45172 -20.45172  -1.33080
 Alpha  occ. eigenvalues --   -1.33080  -0.95894  -0.95893  -0.53142  -0.53142
 Alpha  occ. eigenvalues --   -0.49612  -0.49594  -0.45725  -0.45722  -0.29820
 Alpha  occ. eigenvalues --   -0.29819  -0.28277  -0.28144
 Alpha virt. eigenvalues --    0.49086   0.49170   0.89077   0.89177   0.89545
 Alpha virt. eigenvalues --    0.89545   0.91613   0.91631   0.96580   0.96774
 Alpha virt. eigenvalues --    1.00620   1.00629   1.01088   1.01225   1.11436

 Mulliken charges and spin densities:
               1          2
     1  O   -0.334904   0.562004
     2  O   -0.165096   0.937996
     3  O   -0.165096   0.937996
     4  O   -0.334904   0.562004
 Sum of Mulliken charges =  -1.00000   3.00000

 Dipole moment (field-independent basis, Debye):
    X=             -0.0000    Y=              0.0000    Z=              0.0000  Tot=              0.0000
 Quadrupole moment (field-independent basis, Debye-Ang):
   XX=            -21.8673   YY=            -23.0057   ZZ=            -75.2176
   XY=              0.0000   XZ=              0.0000   YZ=              0.0000

 7819\CCSD=-300.1763891\CCSD(T)=-300.2243916\RMSD=5.784e-09\PG=D*H [C*(
 Normal termination of Gaussian 16 at Mon Jan 16 04:45:35 2023.
