 Gaussian 16, Revision A.03,
 Gaussian 16:  ES64L-G16RevA.03 25-Dec-2016

 ---------------------------------------------------------------
 #p ROCCSD(T)/cc-pVTZ Guess=Read SCF=(VeryTight,CDIIS,VShift=10)
 ---------------------------------------------------------------

 -------
 O2_O2_6
 -------
 Symbolic Z-matrix:
 Charge = -1 Multiplicity = 4

                         Standard orientation:
 ---------------------------------------------------------------------
 Center     Atomic      Atomic             Coordinates (Angstroms)
 Number     Number       Type             X           Y           Z
 ---------------------------------------------------------------------
      1          8           0        0.000000    0.000000    0.835051
      2          8           0        0.000000    0.000000    2.187431
      3          8           0        0.000000    0.000000   -2.187431
      4          8           0        0.000000    0.000000   -0.835051
 ---------------------------------------------------------------------

 SCF Done:  E(ROHF) =  -299.161984808     A.U. after   10 cycles
 E2 =    -0.9655351201D+00 EUMP2 =    -0.30012751992781D+03
 CCSD(T)
 CCSD(T)= -0.30018699107D+03

 Unable to determine electronic state:  an orbital has unidentified symmetry.
 Alpha  occ. eigenvalues --  -20.42567 -20.42567 -20.40445 -20.40443  -1.29702
 Alpha  occ. eigenvalues --   -1.26800  -0.97957  -0.85786  -0.48723  -0.48264
 Alpha  occ. eigenvalues --   -0.46653  -0.46384  -0.42876  -0.29270  -0.28716
 Alpha  occ. eigenvalues --   -0.25843  -0.21136  -0.20069
 Alpha virt. eigenvalues --    0.52218   0.66707   0.91200   0.91356   0.93576
 Alpha virt. eigenvalues --    0.94679   0.94784   0.97579   1.01950   1.03155
 Alpha virt. eigenvalues --    1.13142   1.13632   1.20663   1.20664   1.29186

 Mulliken charges and spin densities:
               1          2
     1  O   -0.206337   0.600404
     2  O   -0.293663   0.899596
     3  O   -0.293663   0.899596
     4  O   -0.206337   0.600404
 Sum of Mulliken charges =  -1.00000   3.00000

 Dipole moment (field-independent basis, Debye):
    X=             -0.0000    Y=              0.0000    Z=              0.0000  Tot=              0.0000
 Quadrupole moment (field-independent basis, Debye-Ang):
   XX=            -21.7202   YY=            -23.0009   ZZ=            -38.3929
   XY=              0.0000   XZ=              0.0000   YZ=              0.0000

 .1293681\CCSD=-300.1384972\CCSD(T)=-300.1869911\RMSD=9.381e-09\PG=D*H
 Normal termination of Gaussian 16 at Sat Jan 14 23:23:13 2023.
