 Gaussian 16, Revision A.03,
 Gaussian 16:  ES64L-G16RevA.03 25-Dec-2016

 ---------------------------------------------------------------
 #p ROCCSD(T)/cc-pVTZ Guess=Read SCF=(VeryTight,CDIIS,VShift=10)
 ---------------------------------------------------------------

 ---------
 O2_O2_122
 ---------
 Symbolic Z-matrix:
 Charge = -1 Multiplicity = 4

                         Standard orientation:
 ---------------------------------------------------------------------
 Center     Atomic      Atomic             Coordinates (Angstroms)
 Number     Number       Type             X           Y           Z
 ---------------------------------------------------------------------
      1          8           0        0.000000    0.000000    1.656249
      2          8           0        0.000000    0.000000    3.008629
      3          8           0        0.000000    0.000000   -3.008629
      4          8           0        0.000000    0.000000   -1.656249
 ---------------------------------------------------------------------

 SCF Done:  E(ROHF) =  -299.199844624     A.U. after    8 cycles
 E2 =    -0.9808303277D+00 EUMP2 =    -0.30018067495124D+03
 CCSD(T)
 CCSD(T)= -0.30022815866D+03

 Unable to determine electronic state:  an orbital has unidentified symmetry.
 Alpha  occ. eigenvalues --  -20.48048 -20.48048 -20.43507 -20.43507  -1.31096
 Alpha  occ. eigenvalues --   -1.31072  -0.93975  -0.93773  -0.51063  -0.51028
 Alpha  occ. eigenvalues --   -0.47612  -0.47576  -0.43973  -0.43245  -0.28003
 Alpha  occ. eigenvalues --   -0.27760  -0.26263  -0.26203
 Alpha virt. eigenvalues --    0.48272   0.54324   0.86110   0.91167   0.91356
 Alpha virt. eigenvalues --    0.91516   0.92931   0.93154   0.93857   1.00115
 Alpha virt. eigenvalues --    1.00859   1.05574   1.05923   1.12998   1.13327

 Mulliken charges and spin densities:
               1          2
     1  O   -0.310016   0.584314
     2  O   -0.189984   0.915686
     3  O   -0.189984   0.915686
     4  O   -0.310016   0.584314
 Sum of Mulliken charges =  -1.00000   3.00000

 Dipole moment (field-independent basis, Debye):
    X=             -0.0000    Y=              0.0000    Z=             -0.0000  Tot=              0.0000
 Quadrupole moment (field-independent basis, Debye-Ang):
   XX=            -21.8738   YY=            -23.0272   ZZ=            -48.5242
   XY=              0.0000   XZ=              0.0000   YZ=              0.0000

 .1704195\CCSD=-300.1802659\CCSD(T)=-300.2281587\RMSD=6.547e-09\PG=D*H
 Normal termination of Gaussian 16 at Sun Jan 15 04:35:51 2023.
