 Gaussian 16, Revision A.03,
 Gaussian 16:  ES64L-G16RevA.03 25-Dec-2016

 ---------------------------------------------------------------
 #p ROCCSD(T)/cc-pVTZ Guess=Read SCF=(VeryTight,CDIIS,VShift=10)
 ---------------------------------------------------------------

 --------
 O2_O2_62
 --------
 Symbolic Z-matrix:
 Charge = -1 Multiplicity = 4

                         Standard orientation:
 ---------------------------------------------------------------------
 Center     Atomic      Atomic             Coordinates (Angstroms)
 Number     Number       Type             X           Y           Z
 ---------------------------------------------------------------------
      1          8           0        0.000000    0.000000    1.231492
      2          8           0        0.000000    0.000000    2.583872
      3          8           0        0.000000    0.000000   -2.583872
      4          8           0        0.000000    0.000000   -1.231492
 ---------------------------------------------------------------------

 SCF Done:  E(ROHF) =  -299.207396963     A.U. after   10 cycles
 E2 =    -0.9757339841D+00 EUMP2 =    -0.30018313094701D+03
 CCSD(T)
 CCSD(T)= -0.30023528517D+03

 Unable to determine electronic state:  an orbital has unidentified symmetry.
 Alpha  occ. eigenvalues --  -20.46289 -20.46289 -20.42542 -20.42541  -1.29939
 Alpha  occ. eigenvalues --   -1.29674  -0.93443  -0.91738  -0.49789  -0.49515
 Alpha  occ. eigenvalues --   -0.46487  -0.46049  -0.44140  -0.40159  -0.27359
 Alpha  occ. eigenvalues --   -0.25909  -0.25429  -0.24376
 Alpha virt. eigenvalues --    0.50583   0.58227   0.90489   0.91653   0.92424
 Alpha virt. eigenvalues --    0.92779   0.92857   0.95480   0.97751   0.99440
 Alpha virt. eigenvalues --    1.02583   1.13605   1.13675   1.13719   1.14420

 Mulliken charges and spin densities:
               1          2
     1  O   -0.281334   0.601902
     2  O   -0.218666   0.898098
     3  O   -0.218666   0.898098
     4  O   -0.281334   0.601902
 Sum of Mulliken charges =  -1.00000   3.00000

 Dipole moment (field-independent basis, Debye):
    X=             -0.0000    Y=              0.0000    Z=              0.0000  Tot=              0.0000
 Quadrupole moment (field-independent basis, Debye-Ang):
   XX=            -21.8745   YY=            -23.0794   ZZ=            -41.6622
   XY=              0.0000   XZ=              0.0000   YZ=              0.0000

 1776249\CCSD=-300.1874892\CCSD(T)=-300.2352852\RMSD=9.062e-09\PG=D*H [
 Normal termination of Gaussian 16 at Sun Jan 15 01:52:24 2023.
