 Gaussian 16, Revision A.03,
 Gaussian 16:  ES64L-G16RevA.03 25-Dec-2016

 ---------------------------------------------------------------
 #p ROCCSD(T)/cc-pVTZ Guess=Read SCF=(VeryTight,CDIIS,VShift=10)
 ---------------------------------------------------------------

 ---------
 O2_O2_291
 ---------
 Symbolic Z-matrix:
 Charge = -1 Multiplicity = 4

                         Standard orientation:
 ---------------------------------------------------------------------
 Center     Atomic      Atomic             Coordinates (Angstroms)
 Number     Number       Type             X           Y           Z
 ---------------------------------------------------------------------
      1          8           0        0.000000    0.000000    2.852649
      2          8           0        0.000000    0.000000    4.205029
      3          8           0        0.000000    0.000000   -4.205029
      4          8           0        0.000000    0.000000   -2.852649
 ---------------------------------------------------------------------

 SCF Done:  E(ROHF) =  -299.196160720     A.U. after    7 cycles
 E2 =    -0.9858566592D+00 EUMP2 =    -0.30018201737884D+03
 CCSD(T)
 CCSD(T)= -0.30022435438D+03

 Unable to determine electronic state:  an orbital has unidentified symmetry.
 Alpha  occ. eigenvalues --  -20.50537 -20.50537 -20.45272 -20.45272  -1.33192
 Alpha  occ. eigenvalues --   -1.33192  -0.96006  -0.96005  -0.53259  -0.53259
 Alpha  occ. eigenvalues --   -0.49725  -0.49706  -0.45840  -0.45838  -0.29929
 Alpha  occ. eigenvalues --   -0.29929  -0.28387  -0.28254
 Alpha virt. eigenvalues --    0.48986   0.49031   0.88992   0.89046   0.89441
 Alpha virt. eigenvalues --    0.89441   0.91507   0.91524   0.96487   0.96588
 Alpha virt. eigenvalues --    1.00507   1.00511   1.00978   1.01109   1.11328

 Mulliken charges and spin densities:
               1          2
     1  O   -0.336025   0.560995
     2  O   -0.163975   0.939005
     3  O   -0.163975   0.939005
     4  O   -0.336025   0.560995
 Sum of Mulliken charges =  -1.00000   3.00000

 Dipole moment (field-independent basis, Debye):
    X=             -0.0000    Y=              0.0000    Z=              0.0000  Tot=              0.0000
 Quadrupole moment (field-independent basis, Debye-Ang):
   XX=            -21.8672   YY=            -23.0057   ZZ=            -77.9939
   XY=              0.0000   XZ=              0.0000   YZ=              0.0000

 667489\CCSD=-300.1763431\CCSD(T)=-300.2243544\RMSD=5.572e-09\PG=D*H [C
 Normal termination of Gaussian 16 at Mon Jan 16 05:02:14 2023.
