 Gaussian 16, Revision A.03,
 Gaussian 16:  ES64L-G16RevA.03 25-Dec-2016

 ---------------------------------------------------------------
 #p ROCCSD(T)/cc-pVTZ Guess=Read SCF=(VeryTight,CDIIS,VShift=10)
 ---------------------------------------------------------------

 ---------
 O2_O2_138
 ---------
 Symbolic Z-matrix:
 Charge = -1 Multiplicity = 4

                         Standard orientation:
 ---------------------------------------------------------------------
 Center     Atomic      Atomic             Coordinates (Angstroms)
 Number     Number       Type             X           Y           Z
 ---------------------------------------------------------------------
      1          8           0        0.000000    0.000000    1.769518
      2          8           0        0.000000    0.000000    3.121898
      3          8           0        0.000000    0.000000   -3.121898
      4          8           0        0.000000    0.000000   -1.769518
 ---------------------------------------------------------------------

 SCF Done:  E(ROHF) =  -299.198742887     A.U. after    8 cycles
 E2 =    -0.9816188773D+00 EUMP2 =    -0.30018036176435D+03
 CCSD(T)
 CCSD(T)= -0.30022700746D+03

 Unable to determine electronic state:  an orbital has unidentified symmetry.
 Alpha  occ. eigenvalues --  -20.48393 -20.48393 -20.43719 -20.43719  -1.31366
 Alpha  occ. eigenvalues --   -1.31353  -0.94214  -0.94100  -0.51350  -0.51329
 Alpha  occ. eigenvalues --   -0.47881  -0.47870  -0.44141  -0.43682  -0.28222
 Alpha  occ. eigenvalues --   -0.28076  -0.26522  -0.26503
 Alpha virt. eigenvalues --    0.48206   0.53485   0.85770   0.90999   0.91219
 Alpha virt. eigenvalues --    0.91407   0.92898   0.93318   0.93489   1.00709
 Alpha virt. eigenvalues --    1.01325   1.04238   1.04655   1.12630   1.13073

 Mulliken charges and spin densities:
               1          2
     1  O   -0.314222   0.580697
     2  O   -0.185778   0.919303
     3  O   -0.185778   0.919303
     4  O   -0.314222   0.580697
 Sum of Mulliken charges =  -1.00000   3.00000

 Dipole moment (field-independent basis, Debye):
    X=             -0.0000    Y=              0.0000    Z=             -0.0000  Tot=              0.0000
 Quadrupole moment (field-independent basis, Debye-Ang):
   XX=            -21.8727   YY=            -23.0196   ZZ=            -50.6931
   XY=              0.0000   XZ=              0.0000   YZ=              0.0000

 00.1692939\CCSD=-300.1791103\CCSD(T)=-300.2270075\RMSD=4.955e-09\PG=D*
 Normal termination of Gaussian 16 at Sun Jan 15 05:18:55 2023.
