 Gaussian 16, Revision A.03,
 Gaussian 16:  ES64L-G16RevA.03 25-Dec-2016

 ---------------------------------------------------------------
 #p ROCCSD(T)/cc-pVTZ Guess=Read SCF=(VeryTight,CDIIS,VShift=10)
 ---------------------------------------------------------------

 --------
 O2_O2_69
 --------
 Symbolic Z-matrix:
 Charge = -1 Multiplicity = 4

                         Standard orientation:
 ---------------------------------------------------------------------
 Center     Atomic      Atomic             Coordinates (Angstroms)
 Number     Number       Type             X           Y           Z
 ---------------------------------------------------------------------
      1          8           0        0.000000    0.000000    1.281047
      2          8           0        0.000000    0.000000    2.633427
      3          8           0        0.000000    0.000000   -2.633427
      4          8           0        0.000000    0.000000   -1.281047
 ---------------------------------------------------------------------

 SCF Done:  E(ROHF) =  -299.206444352     A.U. after   11 cycles
 E2 =    -0.9766122254D+00 EUMP2 =    -0.30018305657725D+03
 CCSD(T)
 CCSD(T)= -0.30023450287D+03

 Unable to determine electronic state:  an orbital has unidentified symmetry.
 Alpha  occ. eigenvalues --  -20.46551 -20.46551 -20.42683 -20.42683  -1.30080
 Alpha  occ. eigenvalues --   -1.29881  -0.93422  -0.92090  -0.49953  -0.49737
 Alpha  occ. eigenvalues --   -0.46620  -0.46281  -0.43995  -0.40723  -0.27396
 Alpha  occ. eigenvalues --   -0.26214  -0.25503  -0.24669
 Alpha virt. eigenvalues --    0.50265   0.57653   0.90571   0.91570   0.92442
 Alpha virt. eigenvalues --    0.92682   0.92863   0.95276   0.97832   0.99288
 Alpha virt. eigenvalues --    0.99428   1.12534   1.12668   1.13627   1.14282

 Mulliken charges and spin densities:
               1          2
     1  O   -0.286382   0.599695
     2  O   -0.213618   0.900305
     3  O   -0.213618   0.900305
     4  O   -0.286382   0.599695
 Sum of Mulliken charges =  -1.00000   3.00000

 Dipole moment (field-independent basis, Debye):
    X=             -0.0000    Y=              0.0000    Z=              0.0000  Tot=              0.0000
 Quadrupole moment (field-independent basis, Debye-Ang):
   XX=            -21.8755   YY=            -23.0721   ZZ=            -42.3444
   XY=              0.0000   XZ=              0.0000   YZ=              0.0000

 .1768092\CCSD=-300.1866851\CCSD(T)=-300.2345029\RMSD=2.430e-09\PG=D*H
 Normal termination of Gaussian 16 at Sun Jan 15 02:13:55 2023.
