 Gaussian 16, Revision A.03,
 Gaussian 16:  ES64L-G16RevA.03 25-Dec-2016

 ---------------------------------------------------------------
 #p ROCCSD(T)/cc-pVTZ Guess=Read SCF=(VeryTight,CDIIS,VShift=10)
 ---------------------------------------------------------------

 ---------
 O2_O2_285
 ---------
 Symbolic Z-matrix:
 Charge = -1 Multiplicity = 4

                         Standard orientation:
 ---------------------------------------------------------------------
 Center     Atomic      Atomic             Coordinates (Angstroms)
 Number     Number       Type             X           Y           Z
 ---------------------------------------------------------------------
      1          8           0        0.000000    0.000000    2.810173
      2          8           0        0.000000    0.000000    4.162554
      3          8           0        0.000000    0.000000   -4.162554
      4          8           0        0.000000    0.000000   -2.810173
 ---------------------------------------------------------------------

 SCF Done:  E(ROHF) =  -299.196178869     A.U. after    7 cycles
 E2 =    -0.9857507269D+00 EUMP2 =    -0.30018192959628D+03
 CCSD(T)
 CCSD(T)= -0.30022437070D+03

 Unable to determine electronic state:  an orbital has unidentified symmetry.
 Alpha  occ. eigenvalues --  -20.50479 -20.50479 -20.45227 -20.45227  -1.33141
 Alpha  occ. eigenvalues --   -1.33141  -0.95955  -0.95954  -0.53206  -0.53206
 Alpha  occ. eigenvalues --   -0.49674  -0.49655  -0.45788  -0.45786  -0.29880
 Alpha  occ. eigenvalues --   -0.29879  -0.28337  -0.28204
 Alpha virt. eigenvalues --    0.49033   0.49093   0.89032   0.89104   0.89488
 Alpha virt. eigenvalues --    0.89488   0.91555   0.91573   0.96532   0.96669
 Alpha virt. eigenvalues --    1.00558   1.00564   1.01028   1.01162   1.11377

 Mulliken charges and spin densities:
               1          2
     1  O   -0.335519   0.561451
     2  O   -0.164481   0.938549
     3  O   -0.164481   0.938549
     4  O   -0.335519   0.561451
 Sum of Mulliken charges =  -1.00000   3.00000

 Dipole moment (field-independent basis, Debye):
    X=             -0.0000    Y=             -0.0000    Z=             -0.0000  Tot=              0.0000
 Quadrupole moment (field-independent basis, Debye-Ang):
   XX=            -21.8672   YY=            -23.0057   ZZ=            -76.7021
   XY=              0.0000   XZ=              0.0000   YZ=              0.0000

 667633\CCSD=-300.1763634\CCSD(T)=-300.2243707\RMSD=5.697e-09\PG=D*H [C
 Normal termination of Gaussian 16 at Mon Jan 16 04:54:05 2023.
