 Gaussian 16, Revision A.03,
 Gaussian 16:  ES64L-G16RevA.03 25-Dec-2016

 ---------------------------------------------------------------
 #p ROCCSD(T)/cc-pVTZ Guess=Read SCF=(VeryTight,CDIIS,VShift=10)
 ---------------------------------------------------------------

 ---------
 O2_O2_249
 ---------
 Symbolic Z-matrix:
 Charge = -1 Multiplicity = 4

                         Standard orientation:
 ---------------------------------------------------------------------
 Center     Atomic      Atomic             Coordinates (Angstroms)
 Number     Number       Type             X           Y           Z
 ---------------------------------------------------------------------
      1          8           0        0.000000    0.000000    2.555319
      2          8           0        0.000000    0.000000    3.907699
      3          8           0        0.000000    0.000000   -3.907699
      4          8           0        0.000000    0.000000   -2.555319
 ---------------------------------------------------------------------

 SCF Done:  E(ROHF) =  -299.196325260     A.U. after    7 cycles
 E2 =    -0.9850440535D+00 EUMP2 =    -0.30018136931379D+03
 CCSD(T)
 CCSD(T)= -0.30022450640D+03

 Unable to determine electronic state:  an orbital has unidentified symmetry.
 Alpha  occ. eigenvalues --  -20.50098 -20.50098 -20.44930 -20.44930  -1.32806
 Alpha  occ. eigenvalues --   -1.32806  -0.95620  -0.95618  -0.52857  -0.52857
 Alpha  occ. eigenvalues --   -0.49339  -0.49320  -0.45446  -0.45436  -0.29553
 Alpha  occ. eigenvalues --   -0.29552  -0.28008  -0.27876
 Alpha virt. eigenvalues --    0.49277   0.49565   0.89214   0.89554   0.89797
 Alpha virt. eigenvalues --    0.89799   0.91868   0.91892   0.96654   0.97404
 Alpha virt. eigenvalues --    1.00886   1.00928   1.01349   1.01517   1.11699

 Mulliken charges and spin densities:
               1          2
     1  O   -0.332050   0.564565
     2  O   -0.167950   0.935435
     3  O   -0.167950   0.935435
     4  O   -0.332050   0.564565
 Sum of Mulliken charges =  -1.00000   3.00000

 Dipole moment (field-independent basis, Debye):
    X=             -0.0000    Y=              0.0000    Z=              0.0000  Tot=              0.0000
 Quadrupole moment (field-independent basis, Debye-Ang):
   XX=            -21.8679   YY=            -23.0057   ZZ=            -69.3293
   XY=              0.0000   XZ=              0.0000   YZ=              0.0000

 668868\CCSD=-300.1765256\CCSD(T)=-300.2245064\RMSD=5.427e-09\PG=D*H [C
 Normal termination of Gaussian 16 at Mon Jan 16 04:11:58 2023.
