 Gaussian 16, Revision A.03,
 Gaussian 16:  ES64L-G16RevA.03 25-Dec-2016

 ---------------------------------------------------------------
 #p ROCCSD(T)/cc-pVTZ Guess=Read SCF=(VeryTight,CDIIS,VShift=10)
 ---------------------------------------------------------------

 ---------
 O2_O2_277
 ---------
 Symbolic Z-matrix:
 Charge = -1 Multiplicity = 4

                         Standard orientation:
 ---------------------------------------------------------------------
 Center     Atomic      Atomic             Coordinates (Angstroms)
 Number     Number       Type             X           Y           Z
 ---------------------------------------------------------------------
      1          8           0        0.000000    0.000000    2.753539
      2          8           0        0.000000    0.000000    4.105919
      3          8           0        0.000000    0.000000   -4.105919
      4          8           0        0.000000    0.000000   -2.753539
 ---------------------------------------------------------------------

 SCF Done:  E(ROHF) =  -299.196205294     A.U. after    7 cycles
 E2 =    -0.9856046144D+00 EUMP2 =    -0.30018180990806D+03
 CCSD(T)
 CCSD(T)= -0.30022439471D+03

 Unable to determine electronic state:  an orbital has unidentified symmetry.
 Alpha  occ. eigenvalues --  -20.50399 -20.50399 -20.45164 -20.45164  -1.33071
 Alpha  occ. eigenvalues --   -1.33071  -0.95885  -0.95884  -0.53133  -0.53133
 Alpha  occ. eigenvalues --   -0.49603  -0.49585  -0.45716  -0.45713  -0.29811
 Alpha  occ. eigenvalues --   -0.29811  -0.28268  -0.28136
 Alpha virt. eigenvalues --    0.49094   0.49181   0.89083   0.89188   0.89553
 Alpha virt. eigenvalues --    0.89554   0.91621   0.91639   0.96586   0.96790
 Alpha virt. eigenvalues --    1.00629   1.00638   1.01097   1.01234   1.11445

 Mulliken charges and spin densities:
               1          2
     1  O   -0.334814   0.562085
     2  O   -0.165186   0.937915
     3  O   -0.165186   0.937915
     4  O   -0.334814   0.562085
 Sum of Mulliken charges =  -1.00000   3.00000

 Dipole moment (field-independent basis, Debye):
    X=             -0.0000    Y=              0.0000    Z=              0.0000  Tot=              0.0000
 Quadrupole moment (field-independent basis, Debye-Ang):
   XX=            -21.8673   YY=            -23.0057   ZZ=            -75.0075
   XY=              0.0000   XZ=              0.0000   YZ=              0.0000

 667847\CCSD=-300.1763929\CCSD(T)=-300.2243947\RMSD=5.790e-09\PG=D*H [C
 Normal termination of Gaussian 16 at Mon Jan 16 04:44:24 2023.
