 Gaussian 16, Revision A.03,
 Gaussian 16:  ES64L-G16RevA.03 25-Dec-2016

 ---------------------------------------------------------------
 #p ROCCSD(T)/cc-pVTZ Guess=Read SCF=(VeryTight,CDIIS,VShift=10)
 ---------------------------------------------------------------

 --------
 O2_O2_45
 --------
 Symbolic Z-matrix:
 Charge = -1 Multiplicity = 4

                         Standard orientation:
 ---------------------------------------------------------------------
 Center     Atomic      Atomic             Coordinates (Angstroms)
 Number     Number       Type             X           Y           Z
 ---------------------------------------------------------------------
      1          8           0        0.000000    0.000000    1.111144
      2          8           0        0.000000    0.000000    2.463524
      3          8           0        0.000000    0.000000   -2.463524
      4          8           0        0.000000    0.000000   -1.111144
 ---------------------------------------------------------------------

 SCF Done:  E(ROHF) =  -299.208186902     A.U. after   10 cycles
 E2 =    -0.9731187490D+00 EUMP2 =    -0.30018130565070D+03
 CCSD(T)
 CCSD(T)= -0.30023542507D+03

 Unable to determine electronic state:  an orbital has unidentified symmetry.
 Alpha  occ. eigenvalues --  -20.45543 -20.45543 -20.42118 -20.42116  -1.29612
 Alpha  occ. eigenvalues --   -1.29080  -0.93742  -0.90640  -0.49380  -0.48890
 Alpha  occ. eigenvalues --   -0.46189  -0.45385  -0.44758  -0.38347  -0.27367
 Alpha  occ. eigenvalues --   -0.25317  -0.24986  -0.23508
 Alpha virt. eigenvalues --    0.51302   0.59880   0.90378   0.92030   0.92447
 Alpha virt. eigenvalues --    0.92700   0.93310   0.96000   0.98036   0.99805
 Alpha virt. eigenvalues --    1.11403   1.13734   1.15003   1.16104   1.16182

 Mulliken charges and spin densities:
               1          2
     1  O   -0.265846   0.606483
     2  O   -0.234154   0.893517
     3  O   -0.234154   0.893517
     4  O   -0.265846   0.606483
 Sum of Mulliken charges =  -1.00000   3.00000

 Dipole moment (field-independent basis, Debye):
    X=             -0.0000    Y=              0.0000    Z=              0.0000  Tot=              0.0000
 Quadrupole moment (field-independent basis, Debye-Ang):
   XX=            -21.8661   YY=            -23.0930   ZZ=            -40.1852
   XY=              0.0000   XZ=              0.0000   YZ=              0.0000

 0.1778658\CCSD=-300.1876768\CCSD(T)=-300.2354251\RMSD=6.201e-09\PG=D*H
 Normal termination of Gaussian 16 at Sun Jan 15 01:09:32 2023.
