 Gaussian 16, Revision A.03,
 Gaussian 16:  ES64L-G16RevA.03 25-Dec-2016

 ---------------------------------------------------------------
 #p ROCCSD(T)/cc-pVTZ Guess=Read SCF=(VeryTight,CDIIS,VShift=10)
 ---------------------------------------------------------------

 ---------
 O2_O2_234
 ---------
 Symbolic Z-matrix:
 Charge = -1 Multiplicity = 4

                         Standard orientation:
 ---------------------------------------------------------------------
 Center     Atomic      Atomic             Coordinates (Angstroms)
 Number     Number       Type             X           Y           Z
 ---------------------------------------------------------------------
      1          8           0        0.000000    0.000000    2.449130
      2          8           0        0.000000    0.000000    3.801510
      3          8           0        0.000000    0.000000   -3.801510
      4          8           0        0.000000    0.000000   -2.449130
 ---------------------------------------------------------------------

 SCF Done:  E(ROHF) =  -299.196416335     A.U. after    7 cycles
 E2 =    -0.9847072904D+00 EUMP2 =    -0.30018112362541D+03
 CCSD(T)
 CCSD(T)= -0.30022459316D+03

 Unable to determine electronic state:  an orbital has unidentified symmetry.
 Alpha  occ. eigenvalues --  -20.49919 -20.49919 -20.44793 -20.44793  -1.32650
 Alpha  occ. eigenvalues --   -1.32649  -0.95464  -0.95461  -0.52695  -0.52694
 Alpha  occ. eigenvalues --   -0.49182  -0.49164  -0.45289  -0.45270  -0.29402
 Alpha  occ. eigenvalues --   -0.29399  -0.27855  -0.27724
 Alpha virt. eigenvalues --    0.49331   0.49842   0.89220   0.89814   0.89939
 Alpha virt. eigenvalues --    0.89945   0.92011   0.92043   0.96543   0.97956
 Alpha virt. eigenvalues --    1.01025   1.01112   1.01486   1.01695   1.11848

 Mulliken charges and spin densities:
               1          2
     1  O   -0.330354   0.566086
     2  O   -0.169646   0.933914
     3  O   -0.169646   0.933914
     4  O   -0.330354   0.566086
 Sum of Mulliken charges =  -1.00000   3.00000

 Dipole moment (field-independent basis, Debye):
    X=             -0.0000    Y=             -0.0000    Z=              0.0000  Tot=              0.0000
 Quadrupole moment (field-independent basis, Debye-Ang):
   XX=            -21.8682   YY=            -23.0058   ZZ=            -66.4492
   XY=              0.0000   XZ=              0.0000   YZ=              0.0000

 669681\CCSD=-300.1766249\CCSD(T)=-300.2245932\RMSD=5.319e-09\PG=D*H [C
 Normal termination of Gaussian 16 at Mon Jan 16 03:52:52 2023.
