 Gaussian 16, Revision A.03,
 Gaussian 16:  ES64L-G16RevA.03 25-Dec-2016

 ---------------------------------------------------------------
 #p ROCCSD(T)/cc-pVTZ Guess=Read SCF=(VeryTight,CDIIS,VShift=10)
 ---------------------------------------------------------------

 ---------
 O2_O2_286
 ---------
 Symbolic Z-matrix:
 Charge = -1 Multiplicity = 4

                         Standard orientation:
 ---------------------------------------------------------------------
 Center     Atomic      Atomic             Coordinates (Angstroms)
 Number     Number       Type             X           Y           Z
 ---------------------------------------------------------------------
      1          8           0        0.000000    0.000000    2.817252
      2          8           0        0.000000    0.000000    4.169633
      3          8           0        0.000000    0.000000   -4.169633
      4          8           0        0.000000    0.000000   -2.817252
 ---------------------------------------------------------------------

 SCF Done:  E(ROHF) =  -299.196175751     A.U. after    7 cycles
 E2 =    -0.9857685940D+00 EUMP2 =    -0.30018194434503D+03
 CCSD(T)
 CCSD(T)= -0.30022436789D+03

 Unable to determine electronic state:  an orbital has unidentified symmetry.
 Alpha  occ. eigenvalues --  -20.50489 -20.50489 -20.45234 -20.45234  -1.33150
 Alpha  occ. eigenvalues --   -1.33150  -0.95963  -0.95963  -0.53215  -0.53215
 Alpha  occ. eigenvalues --   -0.49682  -0.49664  -0.45797  -0.45795  -0.29888
 Alpha  occ. eigenvalues --   -0.29888  -0.28345  -0.28213
 Alpha virt. eigenvalues --    0.49025   0.49082   0.89026   0.89094   0.89480
 Alpha virt. eigenvalues --    0.89480   0.91547   0.91565   0.96525   0.96655
 Alpha virt. eigenvalues --    1.00550   1.00555   1.01020   1.01153   1.11369

 Mulliken charges and spin densities:
               1          2
     1  O   -0.335604   0.561374
     2  O   -0.164396   0.938626
     3  O   -0.164396   0.938626
     4  O   -0.335604   0.561374
 Sum of Mulliken charges =  -1.00000   3.00000

 Dipole moment (field-independent basis, Debye):
    X=             -0.0000    Y=             -0.0000    Z=              0.0000  Tot=              0.0000
 Quadrupole moment (field-independent basis, Debye-Ang):
   XX=            -21.8672   YY=            -23.0057   ZZ=            -76.9161
   XY=              0.0000   XZ=              0.0000   YZ=              0.0000

 667608\CCSD=-300.1763599\CCSD(T)=-300.2243679\RMSD=5.678e-09\PG=D*H [C
 Normal termination of Gaussian 16 at Mon Jan 16 04:55:19 2023.
