 Gaussian 16, Revision A.03,
 Gaussian 16:  ES64L-G16RevA.03 25-Dec-2016

 ---------------------------------------------------------------
 #p ROCCSD(T)/cc-pVTZ Guess=Read SCF=(VeryTight,CDIIS,VShift=10)
 ---------------------------------------------------------------

 -------
 O2_O2_3
 -------
 Symbolic Z-matrix:
 Charge = -1 Multiplicity = 4

                         Standard orientation:
 ---------------------------------------------------------------------
 Center     Atomic      Atomic             Coordinates (Angstroms)
 Number     Number       Type             X           Y           Z
 ---------------------------------------------------------------------
      1          8           0        0.000000    0.000000    0.813813
      2          8           0        0.000000    0.000000    2.166194
      3          8           0        0.000000    0.000000   -2.166194
      4          8           0        0.000000    0.000000   -0.813813
 ---------------------------------------------------------------------

 SCF Done:  E(ROHF) =  -299.150653107     A.U. after   10 cycles
 E2 =    -0.9652698607D+00 EUMP2 =    -0.30011592296811D+03
 CCSD(T)
 CCSD(T)= -0.30017566475D+03

 Unable to determine electronic state:  an orbital has unidentified symmetry.
 Alpha  occ. eigenvalues --  -20.42197 -20.42197 -20.40298 -20.40296  -1.29897
 Alpha  occ. eigenvalues --   -1.26539  -0.98695  -0.85210  -0.48754  -0.48665
 Alpha  occ. eigenvalues --   -0.46572  -0.46402  -0.42593  -0.28974  -0.28048
 Alpha  occ. eigenvalues --   -0.25952  -0.20688  -0.19676
 Alpha virt. eigenvalues --    0.52151   0.67557   0.91207   0.91477   0.93663
 Alpha virt. eigenvalues --    0.94821   0.94906   0.97745   1.02402   1.03576
 Alpha virt. eigenvalues --    1.13020   1.13447   1.20914   1.20920   1.29923

 Mulliken charges and spin densities:
               1          2
     1  O   -0.198824   0.598139
     2  O   -0.301176   0.901861
     3  O   -0.301176   0.901861
     4  O   -0.198824   0.598139
 Sum of Mulliken charges =  -1.00000   3.00000

 Dipole moment (field-independent basis, Debye):
    X=             -0.0000    Y=              0.0000    Z=             -0.0000  Tot=              0.0000
 Quadrupole moment (field-independent basis, Debye-Ang):
   XX=            -21.6922   YY=            -22.9773   ZZ=            -38.4165
   XY=              0.0000   XZ=              0.0000   YZ=              0.0000

 179627\CCSD=-300.1269275\CCSD(T)=-300.1756648\RMSD=8.825e-09\PG=D*H [C
 Normal termination of Gaussian 16 at Sat Jan 14 23:15:31 2023.
