 Gaussian 16, Revision A.03,
 Gaussian 16:  ES64L-G16RevA.03 25-Dec-2016

 ---------------------------------------------------------------
 #p ROCCSD(T)/cc-pVTZ Guess=Read SCF=(VeryTight,CDIIS,VShift=10)
 ---------------------------------------------------------------

 ---------
 O2_O2_108
 ---------
 Symbolic Z-matrix:
 Charge = -1 Multiplicity = 4

                         Standard orientation:
 ---------------------------------------------------------------------
 Center     Atomic      Atomic             Coordinates (Angstroms)
 Number     Number       Type             X           Y           Z
 ---------------------------------------------------------------------
      1          8           0        0.000000    0.000000    1.557139
      2          8           0        0.000000    0.000000    2.909519
      3          8           0        0.000000    0.000000   -2.909519
      4          8           0        0.000000    0.000000   -1.557139
 ---------------------------------------------------------------------

 SCF Done:  E(ROHF) =  -299.201139287     A.U. after    8 cycles
 E2 =    -0.9800072279D+00 EUMP2 =    -0.30018114651493D+03
 CCSD(T)
 CCSD(T)= -0.30022948115D+03

 Unable to determine electronic state:  an orbital has unidentified symmetry.
 Alpha  occ. eigenvalues --  -20.47714 -20.47714 -20.43313 -20.43313  -1.30845
 Alpha  occ. eigenvalues --   -1.30803  -0.93773  -0.93439  -0.50795  -0.50737
 Alpha  occ. eigenvalues --   -0.47363  -0.47291  -0.43865  -0.42777  -0.27815
 Alpha  occ. eigenvalues --   -0.27442  -0.26050  -0.25882
 Alpha virt. eigenvalues --    0.48595   0.55096   0.87601   0.91209   0.91294
 Alpha virt. eigenvalues --    0.91797   0.92880   0.93096   0.94208   0.99454
 Alpha virt. eigenvalues --    1.00369   1.07062   1.07348   1.13203   1.13565

 Mulliken charges and spin densities:
               1          2
     1  O   -0.305552   0.587876
     2  O   -0.194448   0.912124
     3  O   -0.194448   0.912124
     4  O   -0.305552   0.587876
 Sum of Mulliken charges =  -1.00000   3.00000

 Dipole moment (field-independent basis, Debye):
    X=             -0.0000    Y=              0.0000    Z=              0.0000  Tot=              0.0000
 Quadrupole moment (field-independent basis, Debye-Ang):
   XX=            -21.8747   YY=            -23.0362   ZZ=            -46.7369
   XY=              0.0000   XZ=              0.0000   YZ=              0.0000

 00.1717269\CCSD=-300.1815953\CCSD(T)=-300.2294812\RMSD=8.708e-09\PG=D*
 Normal termination of Gaussian 16 at Sun Jan 15 03:57:29 2023.
