 Gaussian 16, Revision A.03,
 Gaussian 16:  ES64L-G16RevA.03 25-Dec-2016

 ---------------------------------------------------------------
 #p ROCCSD(T)/cc-pVTZ Guess=Read SCF=(VeryTight,CDIIS,VShift=10)
 ---------------------------------------------------------------

 ---------
 O2_O2_297
 ---------
 Symbolic Z-matrix:
 Charge = -1 Multiplicity = 4

                         Standard orientation:
 ---------------------------------------------------------------------
 Center     Atomic      Atomic             Coordinates (Angstroms)
 Number     Number       Type             X           Y           Z
 ---------------------------------------------------------------------
      1          8           0        0.000000    0.000000    2.895125
      2          8           0        0.000000    0.000000    4.247505
      3          8           0        0.000000    0.000000   -4.247505
      4          8           0        0.000000    0.000000   -2.895125
 ---------------------------------------------------------------------

 SCF Done:  E(ROHF) =  -299.196143827     A.U. after    7 cycles
 E2 =    -0.9859596182D+00 EUMP2 =    -0.30018210344484D+03
 CCSD(T)
 CCSD(T)= -0.30022433934D+03

 Unable to determine electronic state:  an orbital has unidentified symmetry.
 Alpha  occ. eigenvalues --  -20.50593 -20.50593 -20.45317 -20.45316  -1.33242
 Alpha  occ. eigenvalues --   -1.33242  -0.96055  -0.96055  -0.53310  -0.53310
 Alpha  occ. eigenvalues --   -0.49774  -0.49756  -0.45891  -0.45890  -0.29978
 Alpha  occ. eigenvalues --   -0.29978  -0.28436  -0.28303
 Alpha virt. eigenvalues --    0.48939   0.48972   0.88951   0.88992   0.89395
 Alpha virt. eigenvalues --    0.89395   0.91460   0.91477   0.96440   0.96514
 Alpha virt. eigenvalues --    1.00456   1.00459   1.00928   1.01059   1.11280

 Mulliken charges and spin densities:
               1          2
     1  O   -0.336514   0.560555
     2  O   -0.163486   0.939445
     3  O   -0.163486   0.939445
     4  O   -0.336514   0.560555
 Sum of Mulliken charges =  -1.00000   3.00000

 Dipole moment (field-independent basis, Debye):
    X=             -0.0000    Y=             -0.0000    Z=             -0.0000  Tot=              0.0000
 Quadrupole moment (field-independent basis, Debye-Ang):
   XX=            -21.8671   YY=            -23.0057   ZZ=            -79.3038
   XY=              0.0000   XZ=              0.0000   YZ=              0.0000

 7357\CCSD=-300.1763242\CCSD(T)=-300.2243393\RMSD=5.413e-09\PG=D*H [C*(
 Normal termination of Gaussian 16 at Mon Jan 16 05:09:52 2023.
