 Gaussian 16, Revision A.03,
 Gaussian 16:  ES64L-G16RevA.03 25-Dec-2016

 ---------------------------------------------------------------
 #p ROCCSD(T)/cc-pVTZ Guess=Read SCF=(VeryTight,CDIIS,VShift=10)
 ---------------------------------------------------------------

 --------
 O2_O2_42
 --------
 Symbolic Z-matrix:
 Charge = -1 Multiplicity = 4

                         Standard orientation:
 ---------------------------------------------------------------------
 Center     Atomic      Atomic             Coordinates (Angstroms)
 Number     Number       Type             X           Y           Z
 ---------------------------------------------------------------------
      1          8           0        0.000000    0.000000    1.089906
      2          8           0        0.000000    0.000000    2.442286
      3          8           0        0.000000    0.000000   -2.442286
      4          8           0        0.000000    0.000000   -1.089906
 ---------------------------------------------------------------------

 SCF Done:  E(ROHF) =  -299.207863108     A.U. after   10 cycles
 E2 =    -0.9725817041D+00 EUMP2 =    -0.30018044481174D+03
 CCSD(T)
 CCSD(T)= -0.30023494943D+03

 Unable to determine electronic state:  an orbital has unidentified symmetry.
 Alpha  occ. eigenvalues --  -20.45390 -20.45389 -20.42027 -20.42026  -1.29560
 Alpha  occ. eigenvalues --   -1.28958  -0.93848  -0.90401  -0.49307  -0.48765
 Alpha  occ. eigenvalues --   -0.46143  -0.45249  -0.44915  -0.37942  -0.27390
 Alpha  occ. eigenvalues --   -0.25311  -0.24789  -0.23327
 Alpha virt. eigenvalues --    0.51420   0.60222   0.90370   0.92128   0.92375
 Alpha virt. eigenvalues --    0.92806   0.93395   0.96097   0.98169   0.99925
 Alpha virt. eigenvalues --    1.12715   1.13733   1.15403   1.16520   1.16592

 Mulliken charges and spin densities:
               1          2
     1  O   -0.262601   0.607071
     2  O   -0.237399   0.892929
     3  O   -0.237399   0.892929
     4  O   -0.262601   0.607071
 Sum of Mulliken charges =  -1.00000   3.00000

 Dipole moment (field-independent basis, Debye):
    X=             -0.0000    Y=              0.0000    Z=              0.0000  Tot=              0.0000
 Quadrupole moment (field-independent basis, Debye-Ang):
   XX=            -21.8631   YY=            -23.0940   ZZ=            -39.9561
   XY=              0.0000   XZ=              0.0000   YZ=              0.0000

 0.1774085\CCSD=-300.1872048\CCSD(T)=-300.2349494\RMSD=8.147e-09\PG=D*H
 Normal termination of Gaussian 16 at Sun Jan 15 00:59:11 2023.
