 Gaussian 16, Revision A.03,
 Gaussian 16:  ES64L-G16RevA.03 25-Dec-2016

 ---------------------------------------------------------------
 #p ROCCSD(T)/cc-pVTZ Guess=Read SCF=(VeryTight,CDIIS,VShift=10)
 ---------------------------------------------------------------

 ---------
 O2_O2_143
 ---------
 Symbolic Z-matrix:
 Charge = -1 Multiplicity = 4

                         Standard orientation:
 ---------------------------------------------------------------------
 Center     Atomic      Atomic             Coordinates (Angstroms)
 Number     Number       Type             X           Y           Z
 ---------------------------------------------------------------------
      1          8           0        0.000000    0.000000    1.804914
      2          8           0        0.000000    0.000000    3.157294
      3          8           0        0.000000    0.000000   -3.157294
      4          8           0        0.000000    0.000000   -1.804914
 ---------------------------------------------------------------------

 SCF Done:  E(ROHF) =  -299.198466826     A.U. after    8 cycles
 E2 =    -0.9818394418D+00 EUMP2 =    -0.30018030626788D+03
 CCSD(T)
 CCSD(T)= -0.30022671596D+03

 Unable to determine electronic state:  an orbital has unidentified symmetry.
 Alpha  occ. eigenvalues --  -20.48493 -20.48493 -20.43783 -20.43783  -1.31447
 Alpha  occ. eigenvalues --   -1.31436  -0.94288  -0.94193  -0.51435  -0.51418
 Alpha  occ. eigenvalues --   -0.47962  -0.47956  -0.44199  -0.43802  -0.28290
 Alpha  occ. eigenvalues --   -0.28166  -0.26613  -0.26577
 Alpha virt. eigenvalues --    0.48246   0.53231   0.85894   0.90943   0.91133
 Alpha virt. eigenvalues --    0.91397   0.92872   0.93383   0.93401   1.00851
 Alpha virt. eigenvalues --    1.01439   1.03895   1.04330   1.12341   1.12996

 Mulliken charges and spin densities:
               1          2
     1  O   -0.315395   0.579657
     2  O   -0.184605   0.920343
     3  O   -0.184605   0.920343
     4  O   -0.315395   0.579657
 Sum of Mulliken charges =  -1.00000   3.00000

 Dipole moment (field-independent basis, Debye):
    X=             -0.0000    Y=              0.0000    Z=              0.0000  Tot=              0.0000
 Quadrupole moment (field-independent basis, Debye-Ang):
   XX=            -21.8724   YY=            -23.0177   ZZ=            -51.3982
   XY=              0.0000   XZ=              0.0000   YZ=              0.0000

 00.1690108\CCSD=-300.1788175\CCSD(T)=-300.226716\RMSD=4.600e-09\PG=D*H
 Normal termination of Gaussian 16 at Sun Jan 15 05:31:55 2023.
