 Gaussian 16, Revision A.03,
 Gaussian 16:  ES64L-G16RevA.03 25-Dec-2016

 ---------------------------------------------------------------
 #p ROCCSD(T)/cc-pVTZ Guess=Read SCF=(VeryTight,CDIIS,VShift=10)
 ---------------------------------------------------------------

 ---------
 O2_O2_133
 ---------
 Symbolic Z-matrix:
 Charge = -1 Multiplicity = 4

                         Standard orientation:
 ---------------------------------------------------------------------
 Center     Atomic      Atomic             Coordinates (Angstroms)
 Number     Number       Type             X           Y           Z
 ---------------------------------------------------------------------
      1          8           0        0.000000    0.000000    1.734121
      2          8           0        0.000000    0.000000    3.086501
      3          8           0        0.000000    0.000000   -3.086501
      4          8           0        0.000000    0.000000   -1.734121
 ---------------------------------------------------------------------

 SCF Done:  E(ROHF) =  -299.199049292     A.U. after    8 cycles
 E2 =    -0.9813869914D+00 EUMP2 =    -0.30018043628316D+03
 CCSD(T)
 CCSD(T)= -0.30022732978D+03

 Unable to determine electronic state:  an orbital has unidentified symmetry.
 Alpha  occ. eigenvalues --  -20.48289 -20.48289 -20.43654 -20.43654  -1.31284
 Alpha  occ. eigenvalues --   -1.31268  -0.94139  -0.94003  -0.51262  -0.51238
 Alpha  occ. eigenvalues --   -0.47799  -0.47782  -0.44085  -0.43555  -0.28153
 Alpha  occ. eigenvalues --   -0.27982  -0.26429  -0.26427
 Alpha virt. eigenvalues --    0.48193   0.53743   0.85744   0.91054   0.91309
 Alpha virt. eigenvalues --    0.91404   0.92917   0.93251   0.93600   1.00545
 Alpha virt. eigenvalues --    1.01195   1.04616   1.05012   1.12783   1.13150

 Mulliken charges and spin densities:
               1          2
     1  O   -0.312988   0.581779
     2  O   -0.187012   0.918221
     3  O   -0.187012   0.918221
     4  O   -0.312988   0.581779
 Sum of Mulliken charges =  -1.00000   3.00000

 Dipole moment (field-independent basis, Debye):
    X=             -0.0000    Y=              0.0000    Z=              0.0000  Tot=              0.0000
 Quadrupole moment (field-independent basis, Debye-Ang):
   XX=            -21.8730   YY=            -23.0217   ZZ=            -50.0010
   XY=              0.0000   XZ=              0.0000   YZ=              0.0000

 00.1696078\CCSD=-300.1794339\CCSD(T)=-300.2273298\RMSD=5.378e-09\PG=D*
 Normal termination of Gaussian 16 at Sun Jan 15 05:06:11 2023.
