 Gaussian 16, Revision A.03,
 Gaussian 16:  ES64L-G16RevA.03 25-Dec-2016

 ---------------------------------------------------------------
 #p ROCCSD(T)/cc-pVTZ Guess=Read SCF=(VeryTight,CDIIS,VShift=10)
 ---------------------------------------------------------------

 --------
 O2_O2_52
 --------
 Symbolic Z-matrix:
 Charge = -1 Multiplicity = 4

                         Standard orientation:
 ---------------------------------------------------------------------
 Center     Atomic      Atomic             Coordinates (Angstroms)
 Number     Number       Type             X           Y           Z
 ---------------------------------------------------------------------
      1          8           0        0.000000    0.000000    1.160699
      2          8           0        0.000000    0.000000    2.513079
      3          8           0        0.000000    0.000000   -2.513079
      4          8           0        0.000000    0.000000   -1.160699
 ---------------------------------------------------------------------

 SCF Done:  E(ROHF) =  -299.208272136     A.U. after   10 cycles
 E2 =    -0.9742826592D+00 EUMP2 =    -0.30018255479536D+03
 CCSD(T)
 CCSD(T)= -0.30023582081D+03

 Unable to determine electronic state:  an orbital has unidentified symmetry.
 Alpha  occ. eigenvalues --  -20.45872 -20.45872 -20.42309 -20.42308  -1.29741
 Alpha  occ. eigenvalues --   -1.29343  -0.93565  -0.91141  -0.49549  -0.49164
 Alpha  occ. eigenvalues --   -0.46305  -0.45679  -0.44451  -0.39183  -0.27343
 Alpha  occ. eigenvalues --   -0.25402  -0.25349  -0.23896
 Alpha virt. eigenvalues --    0.51015   0.59146   0.90409   0.91839   0.92522
 Alpha virt. eigenvalues --    0.92602   0.93118   0.95780   0.97828   0.99593
 Alpha virt. eigenvalues --    1.07760   1.13722   1.14655   1.15100   1.15192

 Mulliken charges and spin densities:
               1          2
     1  O   -0.272817   0.604802
     2  O   -0.227183   0.895198
     3  O   -0.227183   0.895198
     4  O   -0.272817   0.604802
 Sum of Mulliken charges =  -1.00000   3.00000

 Dipole moment (field-independent basis, Debye):
    X=             -0.0000    Y=             -0.0000    Z=             -0.0000  Tot=              0.0000
 Quadrupole moment (field-independent basis, Debye-Ang):
   XX=            -21.8711   YY=            -23.0886   ZZ=            -40.7591
   XY=              0.0000   XZ=              0.0000   YZ=              0.0000

 0.178218\CCSD=-300.1880562\CCSD(T)=-300.2358208\RMSD=6.403e-09\PG=D*H
 Normal termination of Gaussian 16 at Sun Jan 15 01:26:41 2023.
