 Gaussian 16, Revision A.03,
 Gaussian 16:  ES64L-G16RevA.03 25-Dec-2016

 ---------------------------------------------------------------
 #p ROCCSD(T)/cc-pVTZ Guess=Read SCF=(VeryTight,CDIIS,VShift=10)
 ---------------------------------------------------------------

 ---------
 O2_O2_210
 ---------
 Symbolic Z-matrix:
 Charge = -1 Multiplicity = 4

                         Standard orientation:
 ---------------------------------------------------------------------
 Center     Atomic      Atomic             Coordinates (Angstroms)
 Number     Number       Type             X           Y           Z
 ---------------------------------------------------------------------
      1          8           0        0.000000    0.000000    2.279227
      2          8           0        0.000000    0.000000    3.631607
      3          8           0        0.000000    0.000000   -3.631607
      4          8           0        0.000000    0.000000   -2.279227
 ---------------------------------------------------------------------

 SCF Done:  E(ROHF) =  -299.196632737     A.U. after    7 cycles
 E2 =    -0.9841040617D+00 EUMP2 =    -0.30018073679915D+03
 CCSD(T)
 CCSD(T)= -0.30022480443D+03

 Unable to determine electronic state:  an orbital has unidentified symmetry.
 Alpha  occ. eigenvalues --  -20.49605 -20.49605 -20.44557 -20.44557  -1.32377
 Alpha  occ. eigenvalues --   -1.32377  -0.95193  -0.95185  -0.52411  -0.52410
 Alpha  occ. eigenvalues --   -0.48909  -0.48891  -0.45019  -0.44972  -0.29141
 Alpha  occ. eigenvalues --   -0.29130  -0.27585  -0.27459
 Alpha virt. eigenvalues --    0.49293   0.50439   0.89018   0.90184   0.90200
 Alpha virt. eigenvalues --    0.90323   0.92253   0.92312   0.95989   0.99505
 Alpha virt. eigenvalues --    1.01223   1.01480   1.01684   1.02049   1.12107

 Mulliken charges and spin densities:
               1          2
     1  O   -0.327274   0.568862
     2  O   -0.172726   0.931138
     3  O   -0.172726   0.931138
     4  O   -0.327274   0.568862
 Sum of Mulliken charges =  -1.00000   3.00000

 Dipole moment (field-independent basis, Debye):
    X=             -0.0000    Y=              0.0000    Z=             -0.0000  Tot=              0.0000
 Quadrupole moment (field-independent basis, Debye-Ang):
   XX=            -21.8690   YY=            -23.0066   ZZ=            -62.0760
   XY=              0.0000   XZ=              0.0000   YZ=              0.0000

 00.1671686\CCSD=-300.1768579\CCSD(T)=-300.2248044\RMSD=7.489e-09\PG=D*
 Normal termination of Gaussian 16 at Sun Jan 15 08:36:59 2023.
