 Gaussian 16, Revision A.03,
 Gaussian 16:  ES64L-G16RevA.03 25-Dec-2016

 ---------------------------------------------------------------
 #p ROCCSD(T)/cc-pVTZ Guess=Read SCF=(VeryTight,CDIIS,VShift=10)
 ---------------------------------------------------------------

 ---------
 O2_O2_107
 ---------
 Symbolic Z-matrix:
 Charge = -1 Multiplicity = 4

                         Standard orientation:
 ---------------------------------------------------------------------
 Center     Atomic      Atomic             Coordinates (Angstroms)
 Number     Number       Type             X           Y           Z
 ---------------------------------------------------------------------
      1          8           0        0.000000    0.000000    1.550060
      2          8           0        0.000000    0.000000    2.902440
      3          8           0        0.000000    0.000000   -2.902440
      4          8           0        0.000000    0.000000   -1.550060
 ---------------------------------------------------------------------

 SCF Done:  E(ROHF) =  -299.201245239     A.U. after    8 cycles
 E2 =    -0.9799425700D+00 EUMP2 =    -0.30018118780877D+03
 CCSD(T)
 CCSD(T)= -0.30022958789D+03

 Unable to determine electronic state:  an orbital has unidentified symmetry.
 Alpha  occ. eigenvalues --  -20.47689 -20.47689 -20.43299 -20.43298  -1.30826
 Alpha  occ. eigenvalues --   -1.30783  -0.93760  -0.93413  -0.50775  -0.50715
 Alpha  occ. eigenvalues --   -0.47345  -0.47269  -0.43859  -0.42740  -0.27802
 Alpha  occ. eigenvalues --   -0.27418  -0.26035  -0.25858
 Alpha virt. eigenvalues --    0.48627   0.55153   0.87757   0.91195   0.91302
 Alpha virt. eigenvalues --    0.91818   0.92873   0.93093   0.94234   0.99403
 Alpha virt. eigenvalues --    1.00333   1.07180   1.07461   1.13217   1.13582

 Mulliken charges and spin densities:
               1          2
     1  O   -0.305197   0.588146
     2  O   -0.194803   0.911854
     3  O   -0.194803   0.911854
     4  O   -0.305197   0.588146
 Sum of Mulliken charges =  -1.00000   3.00000

 Dipole moment (field-independent basis, Debye):
    X=             -0.0000    Y=              0.0000    Z=             -0.0000  Tot=              0.0000
 Quadrupole moment (field-independent basis, Debye-Ang):
   XX=            -21.8748   YY=            -23.0369   ZZ=            -46.6133
   XY=              0.0000   XZ=              0.0000   YZ=              0.0000

 00.171833\CCSD=-300.1817028\CCSD(T)=-300.2295879\RMSD=8.905e-09\PG=D*H
 Normal termination of Gaussian 16 at Sun Jan 15 03:54:49 2023.
