 Gaussian 16, Revision A.03,
 Gaussian 16:  ES64L-G16RevA.03 25-Dec-2016

 ---------------------------------------------------------------
 #p ROCCSD(T)/cc-pVTZ Guess=Read SCF=(VeryTight,CDIIS,VShift=10)
 ---------------------------------------------------------------

 --------
 O2_O2_64
 --------
 Symbolic Z-matrix:
 Charge = -1 Multiplicity = 4

                         Standard orientation:
 ---------------------------------------------------------------------
 Center     Atomic      Atomic             Coordinates (Angstroms)
 Number     Number       Type             X           Y           Z
 ---------------------------------------------------------------------
      1          8           0        0.000000    0.000000    1.245650
      2          8           0        0.000000    0.000000    2.598030
      3          8           0        0.000000    0.000000   -2.598030
      4          8           0        0.000000    0.000000   -1.245650
 ---------------------------------------------------------------------

 SCF Done:  E(ROHF) =  -299.207142286     A.U. after   11 cycles
 E2 =    -0.9759959069D+00 EUMP2 =    -0.30018313819303D+03
 CCSD(T)
 CCSD(T)= -0.30023508450D+03

 Unable to determine electronic state:  an orbital has unidentified symmetry.
 Alpha  occ. eigenvalues --  -20.46366 -20.46366 -20.42584 -20.42583  -1.29979
 Alpha  occ. eigenvalues --   -1.29735  -0.93432  -0.91844  -0.49836  -0.49580
 Alpha  occ. eigenvalues --   -0.46525  -0.46118  -0.44093  -0.40329  -0.27367
 Alpha  occ. eigenvalues --   -0.26000  -0.25449  -0.24463
 Alpha virt. eigenvalues --    0.50493   0.58058   0.90510   0.91626   0.92423
 Alpha virt. eigenvalues --    0.92806   0.92807   0.95421   0.97764   0.99429
 Alpha virt. eigenvalues --    1.01608   1.13300   1.13419   1.13663   1.14379

 Mulliken charges and spin densities:
               1          2
     1  O   -0.282846   0.601281
     2  O   -0.217154   0.898719
     3  O   -0.217154   0.898719
     4  O   -0.282846   0.601281
 Sum of Mulliken charges =  -1.00000   3.00000

 Dipole moment (field-independent basis, Debye):
    X=             -0.0000    Y=             -0.0000    Z=             -0.0000  Tot=              0.0000
 Quadrupole moment (field-independent basis, Debye-Ang):
   XX=            -21.8749   YY=            -23.0773   ZZ=            -41.8532
   XY=              0.0000   XZ=              0.0000   YZ=              0.0000

 177414\CCSD=-300.1872822\CCSD(T)=-300.2350845\RMSD=1.240e-09\PG=D*H [C
 Normal termination of Gaussian 16 at Sun Jan 15 01:57:51 2023.
