 Gaussian 16, Revision A.03,
 Gaussian 16:  ES64L-G16RevA.03 25-Dec-2016

 ---------------------------------------------------------------
 #p ROCCSD(T)/cc-pVTZ Guess=Read SCF=(VeryTight,CDIIS,VShift=10)
 ---------------------------------------------------------------

 --------
 O2_O2_77
 --------
 Symbolic Z-matrix:
 Charge = -1 Multiplicity = 4

                         Standard orientation:
 ---------------------------------------------------------------------
 Center     Atomic      Atomic             Coordinates (Angstroms)
 Number     Number       Type             X           Y           Z
 ---------------------------------------------------------------------
      1          8           0        0.000000    0.000000    1.337681
      2          8           0        0.000000    0.000000    2.690061
      3          8           0        0.000000    0.000000   -2.690061
      4          8           0        0.000000    0.000000   -1.337681
 ---------------------------------------------------------------------

 SCF Done:  E(ROHF) =  -299.205241726     A.U. after   11 cycles
 E2 =    -0.9774933217D+00 EUMP2 =    -0.30018273504812D+03
 CCSD(T)
 CCSD(T)= -0.30023343610D+03

 Unable to determine electronic state:  an orbital has unidentified symmetry.
 Alpha  occ. eigenvalues --  -20.46826 -20.46826 -20.42830 -20.42830  -1.30242
 Alpha  occ. eigenvalues --   -1.30099  -0.93445  -0.92440  -0.50137  -0.49972
 Alpha  occ. eigenvalues --   -0.46775  -0.46522  -0.43888  -0.41273  -0.27459
 Alpha  occ. eigenvalues --   -0.26524  -0.25602  -0.24970
 Alpha virt. eigenvalues --    0.49893   0.57053   0.90689   0.91503   0.92489
 Alpha virt. eigenvalues --    0.92519   0.92912   0.95049   0.95971   0.98037
 Alpha virt. eigenvalues --    0.99498   1.11312   1.11471   1.13559   1.14130

 Mulliken charges and spin densities:
               1          2
     1  O   -0.291399   0.597124
     2  O   -0.208601   0.902876
     3  O   -0.208601   0.902876
     4  O   -0.291399   0.597124
 Sum of Mulliken charges =  -1.00000   3.00000

 Dipole moment (field-independent basis, Debye):
    X=             -0.0000    Y=             -0.0000    Z=              0.0000  Tot=              0.0000
 Quadrupole moment (field-independent basis, Debye-Ang):
   XX=            -21.8759   YY=            -23.0637   ZZ=            -43.1682
   XY=              0.0000   XZ=              0.0000   YZ=              0.0000

 175713\CCSD=-300.1855965\CCSD(T)=-300.2334361\RMSD=3.571e-09\PG=D*H [C
 Normal termination of Gaussian 16 at Sun Jan 15 02:34:57 2023.
