 Gaussian 16, Revision A.03,
 Gaussian 16:  ES64L-G16RevA.03 25-Dec-2016

 ---------------------------------------------------------------
 #p ROCCSD(T)/cc-pVTZ Guess=Read SCF=(VeryTight,CDIIS,VShift=10)
 ---------------------------------------------------------------

 --------
 O2_O2_89
 --------
 Symbolic Z-matrix:
 Charge = -1 Multiplicity = 4

                         Standard orientation:
 ---------------------------------------------------------------------
 Center     Atomic      Atomic             Coordinates (Angstroms)
 Number     Number       Type             X           Y           Z
 ---------------------------------------------------------------------
      1          8           0        0.000000    0.000000    1.422633
      2          8           0        0.000000    0.000000    2.775013
      3          8           0        0.000000    0.000000   -2.775013
      4          8           0        0.000000    0.000000   -1.422633
 ---------------------------------------------------------------------

 SCF Done:  E(ROHF) =  -299.203473673     A.U. after   11 cycles
 E2 =    -0.9786107560D+00 EUMP2 =    -0.30018208442928D+03
 CCSD(T)
 CCSD(T)= -0.30023177968D+03

 Unable to determine electronic state:  an orbital has unidentified symmetry.
 Alpha  occ. eigenvalues --  -20.47199 -20.47199 -20.43029 -20.43029  -1.30482
 Alpha  occ. eigenvalues --   -1.30393  -0.93539  -0.92883  -0.50402  -0.50292
 Alpha  occ. eigenvalues --   -0.47007  -0.46847  -0.43819  -0.41954  -0.27581
 Alpha  occ. eigenvalues --   -0.26924  -0.25767  -0.25364
 Alpha virt. eigenvalues --    0.49339   0.56239   0.90897   0.91427   0.91736
 Alpha virt. eigenvalues --    0.92210   0.92679   0.93125   0.94715   0.98512
 Alpha virt. eigenvalues --    0.99749   1.09542   1.09745   1.13436   1.13906

 Mulliken charges and spin densities:
               1          2
     1  O   -0.297736   0.593350
     2  O   -0.202264   0.906650
     3  O   -0.202264   0.906650
     4  O   -0.297736   0.593350
 Sum of Mulliken charges =  -1.00000   3.00000

 Dipole moment (field-independent basis, Debye):
    X=             -0.0000    Y=             -0.0000    Z=              0.0000  Tot=              0.0000
 Quadrupole moment (field-independent basis, Debye-Ang):
   XX=            -21.8757   YY=            -23.0518   ZZ=            -44.4825
   XY=              0.0000   XZ=              0.0000   YZ=              0.0000

 0.1740304\CCSD=-300.1839154\CCSD(T)=-300.2317797\RMSD=4.730e-09\PG=D*H
 Normal termination of Gaussian 16 at Sun Jan 15 03:07:58 2023.
