 Gaussian 16, Revision A.03,
 Gaussian 16:  ES64L-G16RevA.03 25-Dec-2016

 ---------------------------------------------------------------
 #p ROCCSD(T)/cc-pVTZ Guess=Read SCF=(VeryTight,CDIIS,VShift=10)
 ---------------------------------------------------------------

 --------
 O2_O2_50
 --------
 Symbolic Z-matrix:
 Charge = -1 Multiplicity = 4

                         Standard orientation:
 ---------------------------------------------------------------------
 Center     Atomic      Atomic             Coordinates (Angstroms)
 Number     Number       Type             X           Y           Z
 ---------------------------------------------------------------------
      1          8           0        0.000000    0.000000    1.146540
      2          8           0        0.000000    0.000000    2.498920
      3          8           0        0.000000    0.000000   -2.498920
      4          8           0        0.000000    0.000000   -1.146540
 ---------------------------------------------------------------------

 SCF Done:  E(ROHF) =  -299.208326082     A.U. after   10 cycles
 E2 =    -0.9739628203D+00 EUMP2 =    -0.30018228890254D+03
 CCSD(T)
 CCSD(T)= -0.30023579228D+03

 Unable to determine electronic state:  an orbital has unidentified symmetry.
 Alpha  occ. eigenvalues --  -20.45782 -20.45782 -20.42257 -20.42256  -1.29703
 Alpha  occ. eigenvalues --   -1.29270  -0.93606  -0.91006  -0.49500  -0.49088
 Alpha  occ. eigenvalues --   -0.46270  -0.45598  -0.44531  -0.38959  -0.27346
 Alpha  occ. eigenvalues --   -0.25337  -0.25289  -0.23790
 Alpha virt. eigenvalues --    0.51098   0.59347   0.90398   0.91889   0.92560
 Alpha virt. eigenvalues --    0.92563   0.93172   0.95842   0.97873   0.99644
 Alpha virt. eigenvalues --    1.08825   1.13727   1.14722   1.15391   1.15479

 Mulliken charges and spin densities:
               1          2
     1  O   -0.270912   0.605320
     2  O   -0.229088   0.894680
     3  O   -0.229088   0.894680
     4  O   -0.270912   0.605320
 Sum of Mulliken charges =  -1.00000   3.00000

 Dipole moment (field-independent basis, Debye):
    X=             -0.0000    Y=             -0.0000    Z=             -0.0000  Tot=              0.0000
 Quadrupole moment (field-independent basis, Debye-Ang):
   XX=            -21.8699   YY=            -23.0901   ZZ=            -40.5898
   XY=              0.0000   XZ=              0.0000   YZ=              0.0000

 1782018\CCSD=-300.1880332\CCSD(T)=-300.2357923\RMSD=5.587e-09\PG=D*H [
 Normal termination of Gaussian 16 at Sun Jan 15 01:22:04 2023.
