 Gaussian 16, Revision A.03,
 Gaussian 16:  ES64L-G16RevA.03 25-Dec-2016

 ---------------------------------------------------------------
 #p ROCCSD(T)/cc-pVTZ Guess=Read SCF=(VeryTight,CDIIS,VShift=10)
 ---------------------------------------------------------------

 ---------
 O2_O2_264
 ---------
 Symbolic Z-matrix:
 Charge = -1 Multiplicity = 4

                         Standard orientation:
 ---------------------------------------------------------------------
 Center     Atomic      Atomic             Coordinates (Angstroms)
 Number     Number       Type             X           Y           Z
 ---------------------------------------------------------------------
      1          8           0        0.000000    0.000000    2.661509
      2          8           0        0.000000    0.000000    4.013889
      3          8           0        0.000000    0.000000   -4.013889
      4          8           0        0.000000    0.000000   -2.661509
 ---------------------------------------------------------------------

 SCF Done:  E(ROHF) =  -299.196254792     A.U. after    7 cycles
 E2 =    -0.9853544320D+00 EUMP2 =    -0.30018160922445D+03
 CCSD(T)
 CCSD(T)= -0.30022444044D+03

 Unable to determine electronic state:  an orbital has unidentified symmetry.
 Alpha  occ. eigenvalues --  -20.50264 -20.50264 -20.45059 -20.45059  -1.32952
 Alpha  occ. eigenvalues --   -1.32952  -0.95766  -0.95764  -0.53009  -0.53009
 Alpha  occ. eigenvalues --   -0.49484  -0.49466  -0.45594  -0.45589  -0.29695
 Alpha  occ. eigenvalues --   -0.29694  -0.28152  -0.28019
 Alpha virt. eigenvalues --    0.49187   0.49342   0.89157   0.89341   0.89663
 Alpha virt. eigenvalues --    0.89664   0.91733   0.91753   0.96648   0.97028
 Alpha virt. eigenvalues --    1.00747   1.00766   1.01212   1.01359   1.11559

 Mulliken charges and spin densities:
               1          2
     1  O   -0.333591   0.563183
     2  O   -0.166409   0.936817
     3  O   -0.166409   0.936817
     4  O   -0.333591   0.563183
 Sum of Mulliken charges =  -1.00000   3.00000

 Dipole moment (field-independent basis, Debye):
    X=             -0.0000    Y=              0.0000    Z=             -0.0000  Tot=              0.0000
 Quadrupole moment (field-independent basis, Debye-Ang):
   XX=            -21.8676   YY=            -23.0056   ZZ=            -72.3223
   XY=              0.0000   XZ=              0.0000   YZ=              0.0000

 66826\CCSD=-300.176448\CCSD(T)=-300.2244404\RMSD=5.732e-09\PG=D*H [C*(
 Normal termination of Gaussian 16 at Mon Jan 16 04:29:19 2023.
