 Gaussian 16, Revision A.03,
 Gaussian 16:  ES64L-G16RevA.03 25-Dec-2016

 ---------------------------------------------------------------
 #p ROCCSD(T)/cc-pVTZ Guess=Read SCF=(VeryTight,CDIIS,VShift=10)
 ---------------------------------------------------------------

 --------
 O2_O2_81
 --------
 Symbolic Z-matrix:
 Charge = -1 Multiplicity = 4

                         Standard orientation:
 ---------------------------------------------------------------------
 Center     Atomic      Atomic             Coordinates (Angstroms)
 Number     Number       Type             X           Y           Z
 ---------------------------------------------------------------------
      1          8           0        0.000000    0.000000    1.365998
      2          8           0        0.000000    0.000000    2.718378
      3          8           0        0.000000    0.000000   -2.718378
      4          8           0        0.000000    0.000000   -1.365998
 ---------------------------------------------------------------------

 SCF Done:  E(ROHF) =  -299.204637022     A.U. after   11 cycles
 E2 =    -0.9778905942D+00 EUMP2 =    -0.30018252761623D+03
 CCSD(T)
 CCSD(T)= -0.30023287934D+03

 Unable to determine electronic state:  an orbital has unidentified symmetry.
 Alpha  occ. eigenvalues --  -20.46955 -20.46955 -20.42899 -20.42898  -1.30323
 Alpha  occ. eigenvalues --   -1.30201  -0.93469  -0.92597  -0.50227  -0.50083
 Alpha  occ. eigenvalues --   -0.46853  -0.46635  -0.43854  -0.41518  -0.27497
 Alpha  occ. eigenvalues --   -0.26665  -0.25655  -0.25108
 Alpha virt. eigenvalues --    0.49706   0.56771   0.90755   0.91477   0.92395
 Alpha virt. eigenvalues --    0.92570   0.92895   0.94527   0.94936   0.98176
 Alpha virt. eigenvalues --    0.99564   1.10710   1.10883   1.13520   1.14055

 Mulliken charges and spin densities:
               1          2
     1  O   -0.293654   0.595847
     2  O   -0.206346   0.904153
     3  O   -0.206346   0.904153
     4  O   -0.293654   0.595847
 Sum of Mulliken charges =  -1.00000   3.00000

 Dipole moment (field-independent basis, Debye):
    X=             -0.0000    Y=              0.0000    Z=              0.0000  Tot=              0.0000
 Quadrupole moment (field-independent basis, Debye-Ang):
   XX=            -21.8759   YY=            -23.0596   ZZ=            -43.5962
   XY=              0.0000   XZ=              0.0000   YZ=              0.0000

 51451\CCSD=-300.1850304\CCSD(T)=-300.2328793\RMSD=4.019e-09\PG=D*H [C*
 Normal termination of Gaussian 16 at Sun Jan 15 02:45:02 2023.
