 Gaussian 16, Revision A.03,
 Gaussian 16:  ES64L-G16RevA.03 25-Dec-2016

 ---------------------------------------------------------------
 #p ROCCSD(T)/cc-pVTZ Guess=Read SCF=(VeryTight,CDIIS,VShift=10)
 ---------------------------------------------------------------

 ---------
 O2_O2_276
 ---------
 Symbolic Z-matrix:
 Charge = -1 Multiplicity = 4

                         Standard orientation:
 ---------------------------------------------------------------------
 Center     Atomic      Atomic             Coordinates (Angstroms)
 Number     Number       Type             X           Y           Z
 ---------------------------------------------------------------------
      1          8           0        0.000000    0.000000    2.746460
      2          8           0        0.000000    0.000000    4.098840
      3          8           0        0.000000    0.000000   -4.098840
      4          8           0        0.000000    0.000000   -2.746460
 ---------------------------------------------------------------------

 SCF Done:  E(ROHF) =  -299.196208794     A.U. after    7 cycles
 E2 =    -0.9855859444D+00 EUMP2 =    -0.30018179473860D+03
 CCSD(T)
 CCSD(T)= -0.30022439791D+03

 Unable to determine electronic state:  an orbital has unidentified symmetry.
 Alpha  occ. eigenvalues --  -20.50389 -20.50389 -20.45157 -20.45157  -1.33062
 Alpha  occ. eigenvalues --   -1.33062  -0.95876  -0.95875  -0.53124  -0.53124
 Alpha  occ. eigenvalues --   -0.49595  -0.49576  -0.45707  -0.45704  -0.29803
 Alpha  occ. eigenvalues --   -0.29802  -0.28260  -0.28127
 Alpha virt. eigenvalues --    0.49101   0.49193   0.89089   0.89199   0.89561
 Alpha virt. eigenvalues --    0.89562   0.91630   0.91648   0.96592   0.96806
 Alpha virt. eigenvalues --    1.00638   1.00648   1.01106   1.01243   1.11453

 Mulliken charges and spin densities:
               1          2
     1  O   -0.334723   0.562166
     2  O   -0.165277   0.937834
     3  O   -0.165277   0.937834
     4  O   -0.334723   0.562166
 Sum of Mulliken charges =  -1.00000   3.00000

 Dipole moment (field-independent basis, Debye):
    X=             -0.0000    Y=             -0.0000    Z=              0.0000  Tot=              0.0000
 Quadrupole moment (field-independent basis, Debye-Ang):
   XX=            -21.8674   YY=            -23.0057   ZZ=            -74.7980
   XY=              0.0000   XZ=              0.0000   YZ=              0.0000

 876\CCSD=-300.1763968\CCSD(T)=-300.2243979\RMSD=5.795e-09\PG=D*H [C*(O
 Normal termination of Gaussian 16 at Mon Jan 16 04:43:14 2023.
