 Gaussian 16, Revision A.03,
 Gaussian 16:  ES64L-G16RevA.03 25-Dec-2016

 ---------------------------------------------------------------
 #p ROCCSD(T)/cc-pVTZ Guess=Read SCF=(VeryTight,CDIIS,VShift=10)
 ---------------------------------------------------------------

 --------
 O2_O2_61
 --------
 Symbolic Z-matrix:
 Charge = -1 Multiplicity = 4

                         Standard orientation:
 ---------------------------------------------------------------------
 Center     Atomic      Atomic             Coordinates (Angstroms)
 Number     Number       Type             X           Y           Z
 ---------------------------------------------------------------------
      1          8           0        0.000000    0.000000    1.224412
      2          8           0        0.000000    0.000000    2.576792
      3          8           0        0.000000    0.000000   -2.576792
      4          8           0        0.000000    0.000000   -1.224412
 ---------------------------------------------------------------------

 SCF Done:  E(ROHF) =  -299.207517154     A.U. after   10 cycles
 E2 =    -0.9755996101D+00 EUMP2 =    -0.30018311676364D+03
 CCSD(T)
 CCSD(T)= -0.30023537667D+03

 Unable to determine electronic state:  an orbital has unidentified symmetry.
 Alpha  occ. eigenvalues --  -20.46250 -20.46250 -20.42520 -20.42519  -1.29918
 Alpha  occ. eigenvalues --   -1.29643  -0.93450  -0.91684  -0.49765  -0.49482
 Alpha  occ. eigenvalues --   -0.46468  -0.46015  -0.44165  -0.40071  -0.27355
 Alpha  occ. eigenvalues --   -0.25862  -0.25419  -0.24331
 Alpha virt. eigenvalues --    0.50627   0.58313   0.90479   0.91668   0.92427
 Alpha virt. eigenvalues --    0.92764   0.92883   0.95509   0.97748   0.99448
 Alpha virt. eigenvalues --    1.03079   1.13681   1.13756   1.13868   1.14440

 Mulliken charges and spin densities:
               1          2
     1  O   -0.280555   0.602209
     2  O   -0.219445   0.897791
     3  O   -0.219445   0.897791
     4  O   -0.280555   0.602209
 Sum of Mulliken charges =  -1.00000   3.00000

 Dipole moment (field-independent basis, Debye):
    X=             -0.0000    Y=             -0.0000    Z=             -0.0000  Tot=              0.0000
 Quadrupole moment (field-independent basis, Debye-Ang):
   XX=            -21.8743   YY=            -23.0804   ZZ=            -41.5679
   XY=              0.0000   XZ=              0.0000   YZ=              0.0000

 0.1777217\CCSD=-300.187584\CCSD(T)=-300.2353767\RMSD=8.888e-09\PG=D*H
 Normal termination of Gaussian 16 at Sun Jan 15 01:49:49 2023.
