 Gaussian 16, Revision A.03,
 Gaussian 16:  ES64L-G16RevA.03 25-Dec-2016

 ---------------------------------------------------------------
 #p ROCCSD(T)/cc-pVTZ Guess=Read SCF=(VeryTight,CDIIS,VShift=10)
 ---------------------------------------------------------------

 --------
 O2_O2_46
 --------
 Symbolic Z-matrix:
 Charge = -1 Multiplicity = 4

                         Standard orientation:
 ---------------------------------------------------------------------
 Center     Atomic      Atomic             Coordinates (Angstroms)
 Number     Number       Type             X           Y           Z
 ---------------------------------------------------------------------
      1          8           0        0.000000    0.000000    1.118223
      2          8           0        0.000000    0.000000    2.470603
      3          8           0        0.000000    0.000000   -2.470603
      4          8           0        0.000000    0.000000   -1.118223
 ---------------------------------------------------------------------

 SCF Done:  E(ROHF) =  -299.208250986     A.U. after   10 cycles
 E2 =    -0.9732926718D+00 EUMP2 =    -0.30018154365768D+03
 CCSD(T)
 CCSD(T)= -0.30023553726D+03

 Unable to determine electronic state:  an orbital has unidentified symmetry.
 Alpha  occ. eigenvalues --  -20.45592 -20.45592 -20.42147 -20.42146  -1.29629
 Alpha  occ. eigenvalues --   -1.29119  -0.93711  -0.90717  -0.49404  -0.48931
 Alpha  occ. eigenvalues --   -0.46204  -0.45429  -0.44709  -0.38476  -0.27362
 Alpha  occ. eigenvalues --   -0.25320  -0.25049  -0.23567
 Alpha virt. eigenvalues --    0.51262   0.59769   0.90381   0.92000   0.92470
 Alpha virt. eigenvalues --    0.92669   0.93282   0.95968   0.97998   0.99769
 Alpha virt. eigenvalues --    1.10909   1.13733   1.14924   1.15963   1.16043

 Mulliken charges and spin densities:
               1          2
     1  O   -0.266893   0.606268
     2  O   -0.233107   0.893732
     3  O   -0.233107   0.893732
     4  O   -0.266893   0.606268
 Sum of Mulliken charges =  -1.00000   3.00000

 Dipole moment (field-independent basis, Debye):
    X=             -0.0000    Y=              0.0000    Z=             -0.0000  Tot=              0.0000
 Quadrupole moment (field-independent basis, Debye-Ang):
   XX=            -21.8670   YY=            -23.0925   ZZ=            -40.2639
   XY=              0.0000   XZ=              0.0000   YZ=              0.0000

 1779717\CCSD=-300.1877872\CCSD(T)=-300.2355373\RMSD=5.692e-09\PG=D*H [
 Normal termination of Gaussian 16 at Sun Jan 15 01:12:12 2023.
