 Gaussian 16, Revision A.03,
 Gaussian 16:  ES64L-G16RevA.03 25-Dec-2016

 ---------------------------------------------------------------
 #p ROCCSD(T)/cc-pVTZ Guess=Read SCF=(VeryTight,CDIIS,VShift=10)
 ---------------------------------------------------------------

 ---------
 O2_O2_105
 ---------
 Symbolic Z-matrix:
 Charge = -1 Multiplicity = 4

                         Standard orientation:
 ---------------------------------------------------------------------
 Center     Atomic      Atomic             Coordinates (Angstroms)
 Number     Number       Type             X           Y           Z
 ---------------------------------------------------------------------
      1          8           0        0.000000    0.000000    1.535901
      2          8           0        0.000000    0.000000    2.888281
      3          8           0        0.000000    0.000000   -2.888281
      4          8           0        0.000000    0.000000   -1.535901
 ---------------------------------------------------------------------

 SCF Done:  E(ROHF) =  -299.201462785     A.U. after    8 cycles
 E2 =    -0.9798106228D+00 EUMP2 =    -0.30018127340793D+03
 CCSD(T)
 CCSD(T)= -0.30022980635D+03

 Unable to determine electronic state:  an orbital has unidentified symmetry.
 Alpha  occ. eigenvalues --  -20.47638 -20.47638 -20.43270 -20.43270  -1.30789
 Alpha  occ. eigenvalues --   -1.30742  -0.93732  -0.93361  -0.50735  -0.50671
 Alpha  occ. eigenvalues --   -0.47308  -0.47225  -0.43848  -0.42663  -0.27776
 Alpha  occ. eigenvalues --   -0.27368  -0.26004  -0.25807
 Alpha virt. eigenvalues --    0.48694   0.55268   0.88089   0.91166   0.91318
 Alpha virt. eigenvalues --    0.91860   0.92858   0.93090   0.94286   0.99302
 Alpha virt. eigenvalues --    1.00262   1.07420   1.07693   1.13243   1.13617

 Mulliken charges and spin densities:
               1          2
     1  O   -0.304470   0.588691
     2  O   -0.195530   0.911309
     3  O   -0.195530   0.911309
     4  O   -0.304470   0.588691
 Sum of Mulliken charges =  -1.00000   3.00000

 Dipole moment (field-independent basis, Debye):
    X=             -0.0000    Y=              0.0000    Z=             -0.0000  Tot=              0.0000
 Quadrupole moment (field-independent basis, Debye-Ang):
   XX=            -21.8749   YY=            -23.0384   ZZ=            -46.3676
   XY=              0.0000   XZ=              0.0000   YZ=              0.0000

 00.1720504\CCSD=-300.1819228\CCSD(T)=-300.2298064\RMSD=9.322e-09\PG=D*
 Normal termination of Gaussian 16 at Sun Jan 15 03:49:35 2023.
