 Gaussian 16, Revision A.03,
 Gaussian 16:  ES64L-G16RevA.03 25-Dec-2016

 ---------------------------------------------------------------
 #p ROCCSD(T)/cc-pVTZ Guess=Read SCF=(VeryTight,CDIIS,VShift=10)
 ---------------------------------------------------------------

 ---------
 O2_O2_150
 ---------
 Symbolic Z-matrix:
 Charge = -1 Multiplicity = 4

                         Standard orientation:
 ---------------------------------------------------------------------
 Center     Atomic      Atomic             Coordinates (Angstroms)
 Number     Number       Type             X           Y           Z
 ---------------------------------------------------------------------
      1          8           0        0.000000    0.000000    1.854469
      2          8           0        0.000000    0.000000    3.206849
      3          8           0        0.000000    0.000000   -3.206849
      4          8           0        0.000000    0.000000   -1.854469
 ---------------------------------------------------------------------

 SCF Done:  E(ROHF) =  -299.198126172     A.U. after    8 cycles
 E2 =    -0.9821314567D+00 EUMP2 =    -0.30018025762847D+03
 CCSD(T)
 CCSD(T)= -0.30022635542D+03

 Unable to determine electronic state:  an orbital has unidentified symmetry.
 Alpha  occ. eigenvalues --  -20.48629 -20.48629 -20.43871 -20.43871  -1.31557
 Alpha  occ. eigenvalues --   -1.31549  -0.94392  -0.94318  -0.51551  -0.51538
 Alpha  occ. eigenvalues --   -0.48072  -0.48072  -0.44283  -0.43960  -0.28386
 Alpha  occ. eigenvalues --   -0.28287  -0.26735  -0.26678
 Alpha virt. eigenvalues --    0.48340   0.52881   0.86196   0.90864   0.91016
 Alpha virt. eigenvalues --    0.91363   0.92827   0.93240   0.93549   1.01015
 Alpha virt. eigenvalues --    1.01570   1.03467   1.03927   1.11137   1.12892

 Mulliken charges and spin densities:
               1          2
     1  O   -0.316947   0.578265
     2  O   -0.183053   0.921735
     3  O   -0.183053   0.921735
     4  O   -0.316947   0.578265
 Sum of Mulliken charges =  -1.00000   3.00000

 Dipole moment (field-independent basis, Debye):
    X=             -0.0000    Y=              0.0000    Z=              0.0000  Tot=              0.0000
 Quadrupole moment (field-independent basis, Debye-Ang):
   XX=            -21.8720   YY=            -23.0154   ZZ=            -52.4070
   XY=              0.0000   XZ=              0.0000   YZ=              0.0000

 00.1686616\CCSD=-300.1784546\CCSD(T)=-300.2263554\RMSD=4.226e-09\PG=D*
 Normal termination of Gaussian 16 at Sun Jan 15 05:50:22 2023.
