 Gaussian 16, Revision A.03,
 Gaussian 16:  ES64L-G16RevA.03 25-Dec-2016

 ---------------------------------------------------------------
 #p ROCCSD(T)/cc-pVTZ Guess=Read SCF=(VeryTight,CDIIS,VShift=10)
 ---------------------------------------------------------------

 ---------
 O2_O2_253
 ---------
 Symbolic Z-matrix:
 Charge = -1 Multiplicity = 4

                         Standard orientation:
 ---------------------------------------------------------------------
 Center     Atomic      Atomic             Coordinates (Angstroms)
 Number     Number       Type             X           Y           Z
 ---------------------------------------------------------------------
      1          8           0        0.000000    0.000000    2.583636
      2          8           0        0.000000    0.000000    3.936016
      3          8           0        0.000000    0.000000   -3.936016
      4          8           0        0.000000    0.000000   -2.583636
 ---------------------------------------------------------------------

 SCF Done:  E(ROHF) =  -299.196304779     A.U. after    7 cycles
 E2 =    -0.9851292558D+00 EUMP2 =    -0.30018143403442D+03
 CCSD(T)
 CCSD(T)= -0.30022448712D+03

 Unable to determine electronic state:  an orbital has unidentified symmetry.
 Alpha  occ. eigenvalues --  -20.50143 -20.50143 -20.44965 -20.44965  -1.32846
 Alpha  occ. eigenvalues --   -1.32846  -0.95660  -0.95658  -0.52899  -0.52899
 Alpha  occ. eigenvalues --   -0.49378  -0.49360  -0.45487  -0.45478  -0.29592
 Alpha  occ. eigenvalues --   -0.29591  -0.28048  -0.27915
 Alpha virt. eigenvalues --    0.49255   0.49501   0.89203   0.89493   0.89760
 Alpha virt. eigenvalues --    0.89762   0.91832   0.91854   0.96661   0.97290
 Alpha virt. eigenvalues --    1.00849   1.00883   1.01312   1.01473   1.11661

 Mulliken charges and spin densities:
               1          2
     1  O   -0.332475   0.564183
     2  O   -0.167525   0.935817
     3  O   -0.167525   0.935817
     4  O   -0.332475   0.564183
 Sum of Mulliken charges =  -1.00000   3.00000

 Dipole moment (field-independent basis, Debye):
    X=             -0.0000    Y=              0.0000    Z=              0.0000  Tot=              0.0000
 Quadrupole moment (field-independent basis, Debye-Ang):
   XX=            -21.8678   YY=            -23.0057   ZZ=            -70.1164
   XY=              0.0000   XZ=              0.0000   YZ=              0.0000

 869\CCSD=-300.1765031\CCSD(T)=-300.2244871\RMSD=5.515e-09\PG=D*H [C*(O
 Normal termination of Gaussian 16 at Mon Jan 16 04:16:34 2023.
