 Gaussian 16, Revision A.03,
 Gaussian 16:  ES64L-G16RevA.03 25-Dec-2016

 ---------------------------------------------------------------
 #p ROCCSD(T)/cc-pVTZ Guess=Read SCF=(VeryTight,CDIIS,VShift=10)
 ---------------------------------------------------------------

 ---------
 O2_O2_177
 ---------
 Symbolic Z-matrix:
 Charge = -1 Multiplicity = 4

                         Standard orientation:
 ---------------------------------------------------------------------
 Center     Atomic      Atomic             Coordinates (Angstroms)
 Number     Number       Type             X           Y           Z
 ---------------------------------------------------------------------
      1          8           0        0.000000    0.000000    2.045610
      2          8           0        0.000000    0.000000    3.397990
      3          8           0        0.000000    0.000000   -3.397990
      4          8           0        0.000000    0.000000   -2.045610
 ---------------------------------------------------------------------

 SCF Done:  E(ROHF) =  -299.197205640     A.U. after    8 cycles
 E2 =    -0.9831168819D+00 EUMP2 =    -0.30018032252218D+03
 CCSD(T)
 CCSD(T)= -0.30022538656D+03

 Unable to determine electronic state:  an orbital has unidentified symmetry.
 Alpha  occ. eigenvalues --  -20.49106 -20.49106 -20.44196 -20.44196  -1.31952
 Alpha  occ. eigenvalues --   -1.31950  -0.94773  -0.94746  -0.51967  -0.51962
 Alpha  occ. eigenvalues --   -0.48480  -0.48467  -0.44619  -0.44477  -0.28741
 Alpha  occ. eigenvalues --   -0.28703  -0.27155  -0.27050
 Alpha virt. eigenvalues --    0.48869   0.51632   0.87855   0.90551   0.90611
 Alpha virt. eigenvalues --    0.91029   0.92591   0.92764   0.94524   1.01316
 Alpha virt. eigenvalues --    1.01801   1.02284   1.02812   1.04183   1.12517

 Mulliken charges and spin densities:
               1          2
     1  O   -0.322155   0.573527
     2  O   -0.177845   0.926473
     3  O   -0.177845   0.926473
     4  O   -0.322155   0.573527
 Sum of Mulliken charges =  -1.00000   3.00000

 Dipole moment (field-independent basis, Debye):
    X=             -0.0000    Y=              0.0000    Z=              0.0000  Tot=              0.0000
 Quadrupole moment (field-independent basis, Debye-Ang):
   XX=            -21.8704   YY=            -23.0095   ZZ=            -56.5336
   XY=              0.0000   XZ=              0.0000   YZ=              0.0000

 .1677276\CCSD=-300.1774698\CCSD(T)=-300.2253866\RMSD=3.798e-09\PG=D*H
 Normal termination of Gaussian 16 at Sun Jan 15 07:08:36 2023.
