 Gaussian 16, Revision A.03,
 Gaussian 16:  ES64L-G16RevA.03 25-Dec-2016

 ---------------------------------------------------------------
 #p ROCCSD(T)/cc-pVTZ Guess=Read SCF=(VeryTight,CDIIS,VShift=10)
 ---------------------------------------------------------------

 ---------
 O2_O2_216
 ---------
 Symbolic Z-matrix:
 Charge = -1 Multiplicity = 4

                         Standard orientation:
 ---------------------------------------------------------------------
 Center     Atomic      Atomic             Coordinates (Angstroms)
 Number     Number       Type             X           Y           Z
 ---------------------------------------------------------------------
      1          8           0        0.000000    0.000000    2.321703
      2          8           0        0.000000    0.000000    3.674083
      3          8           0        0.000000    0.000000   -3.674083
      4          8           0        0.000000    0.000000   -2.321703
 ---------------------------------------------------------------------

 SCF Done:  E(ROHF) =  -299.196567757     A.U. after    7 cycles
 E2 =    -0.9842630193D+00 EUMP2 =    -0.30018083077668D+03
 CCSD(T)
 CCSD(T)= -0.30022474038D+03

 Unable to determine electronic state:  an orbital has unidentified symmetry.
 Alpha  occ. eigenvalues --  -20.49687 -20.49687 -20.44618 -20.44618  -1.32448
 Alpha  occ. eigenvalues --   -1.32448  -0.95263  -0.95257  -0.52485  -0.52484
 Alpha  occ. eigenvalues --   -0.48981  -0.48962  -0.45089  -0.45051  -0.29209
 Alpha  occ. eigenvalues --   -0.29200  -0.27656  -0.27527
 Alpha virt. eigenvalues --    0.49321   0.50269   0.89103   0.90121   0.90133
 Alpha virt. eigenvalues --    0.90188   0.92191   0.92241   0.96178   0.99013
 Alpha virt. eigenvalues --    1.01179   1.01376   1.01639   1.01950   1.12039

 Mulliken charges and spin densities:
               1          2
     1  O   -0.328090   0.568125
     2  O   -0.171910   0.931875
     3  O   -0.171910   0.931875
     4  O   -0.328090   0.568125
 Sum of Mulliken charges =  -1.00000   3.00000

 Dipole moment (field-independent basis, Debye):
    X=             -0.0000    Y=              0.0000    Z=             -0.0000  Tot=              0.0000
 Quadrupole moment (field-independent basis, Debye-Ang):
   XX=            -21.8688   YY=            -23.0063   ZZ=            -63.1422
   XY=              0.0000   XZ=              0.0000   YZ=              0.0000

 00.1671075\CCSD=-300.1767883\CCSD(T)=-300.2247404\RMSD=6.560e-09\PG=D*
 Normal termination of Gaussian 16 at Sun Jan 15 08:52:33 2023.
