 Gaussian 16, Revision A.03,
 Gaussian 16:  ES64L-G16RevA.03 25-Dec-2016

 ---------------------------------------------------------------
 #p ROCCSD(T)/cc-pVTZ Guess=Read SCF=(VeryTight,CDIIS,VShift=10)
 ---------------------------------------------------------------

 ---------
 O2_O2_101
 ---------
 Symbolic Z-matrix:
 Charge = -1 Multiplicity = 4

                         Standard orientation:
 ---------------------------------------------------------------------
 Center     Atomic      Atomic             Coordinates (Angstroms)
 Number     Number       Type             X           Y           Z
 ---------------------------------------------------------------------
      1          8           0        0.000000    0.000000    1.507584
      2          8           0        0.000000    0.000000    2.859964
      3          8           0        0.000000    0.000000   -2.859964
      4          8           0        0.000000    0.000000   -1.507584
 ---------------------------------------------------------------------

 SCF Done:  E(ROHF) =  -299.201920686     A.U. after   11 cycles
 E2 =    -0.9795370644D+00 EUMP2 =    -0.30018145775030D+03
 CCSD(T)
 CCSD(T)= -0.30023026311D+03

 Unable to determine electronic state:  an orbital has unidentified symmetry.
 Alpha  occ. eigenvalues --  -20.47533 -20.47533 -20.43212 -20.43211  -1.30714
 Alpha  occ. eigenvalues --   -1.30659  -0.93679  -0.93251  -0.50654  -0.50581
 Alpha  occ. eigenvalues --   -0.47234  -0.47136  -0.43831  -0.42503  -0.27725
 Alpha  occ. eigenvalues --   -0.27265  -0.25944  -0.25704
 Alpha virt. eigenvalues --    0.48838   0.55501   0.88838   0.91105   0.91348
 Alpha virt. eigenvalues --    0.91946   0.92822   0.93084   0.94391   0.99099
 Alpha virt. eigenvalues --    1.00122   1.07918   1.08173   1.13294   1.13688

 Mulliken charges and spin densities:
               1          2
     1  O   -0.302944   0.589810
     2  O   -0.197056   0.910190
     3  O   -0.197056   0.910190
     4  O   -0.302944   0.589810
 Sum of Mulliken charges =  -1.00000   3.00000

 Dipole moment (field-independent basis, Debye):
    X=             -0.0000    Y=              0.0000    Z=             -0.0000  Tot=              0.0000
 Quadrupole moment (field-independent basis, Debye-Ang):
   XX=            -21.8751   YY=            -23.0415   ZZ=            -45.8829
   XY=              0.0000   XZ=              0.0000   YZ=              0.0000

 00.1725067\CCSD=-300.1823831\CCSD(T)=-300.2302631\RMSD=5.101e-09\PG=D*
 Normal termination of Gaussian 16 at Sun Jan 15 03:39:09 2023.
