 Gaussian 16, Revision A.03,
 Gaussian 16:  ES64L-G16RevA.03 25-Dec-2016

 ---------------------------------------------------------------
 #p ROCCSD(T)/cc-pVTZ Guess=Read SCF=(VeryTight,CDIIS,VShift=10)
 ---------------------------------------------------------------

 --------
 O2_O2_98
 --------
 Symbolic Z-matrix:
 Charge = -1 Multiplicity = 4

                         Standard orientation:
 ---------------------------------------------------------------------
 Center     Atomic      Atomic             Coordinates (Angstroms)
 Number     Number       Type             X           Y           Z
 ---------------------------------------------------------------------
      1          8           0        0.000000    0.000000    1.486346
      2          8           0        0.000000    0.000000    2.838726
      3          8           0        0.000000    0.000000   -2.838726
      4          8           0        0.000000    0.000000   -1.486346
 ---------------------------------------------------------------------

 SCF Done:  E(ROHF) =  -299.202284125     A.U. after   11 cycles
 E2 =    -0.9793205662D+00 EUMP2 =    -0.30018160469140D+03
 CCSD(T)
 CCSD(T)= -0.30023062258D+03

 Unable to determine electronic state:  an orbital has unidentified symmetry.
 Alpha  occ. eigenvalues --  -20.47453 -20.47453 -20.43167 -20.43167  -1.30657
 Alpha  occ. eigenvalues --   -1.30595  -0.93641  -0.93164  -0.50592  -0.50511
 Alpha  occ. eigenvalues --   -0.47178  -0.47066  -0.43822  -0.42376  -0.27687
 Alpha  occ. eigenvalues --   -0.27184  -0.25899  -0.25623
 Alpha virt. eigenvalues --    0.48955   0.55680   0.89474   0.91055   0.91369
 Alpha virt. eigenvalues --    0.92011   0.92791   0.93083   0.94471   0.98948
 Alpha virt. eigenvalues --    1.00021   1.08307   1.08548   1.13331   1.13742

 Mulliken charges and spin densities:
               1          2
     1  O   -0.301735   0.590669
     2  O   -0.198265   0.909331
     3  O   -0.198265   0.909331
     4  O   -0.301735   0.590669
 Sum of Mulliken charges =  -1.00000   3.00000

 Dipole moment (field-independent basis, Debye):
    X=             -0.0000    Y=              0.0000    Z=             -0.0000  Tot=              0.0000
 Quadrupole moment (field-independent basis, Debye-Ang):
   XX=            -21.8753   YY=            -23.0439   ZZ=            -45.5251
   XY=              0.0000   XZ=              0.0000   YZ=              0.0000

 0.1728664\CCSD=-300.1827458\CCSD(T)=-300.2306226\RMSD=5.212e-09\PG=D*H
 Normal termination of Gaussian 16 at Sun Jan 15 03:31:22 2023.
