 Gaussian 16, Revision A.03,
 Gaussian 16:  ES64L-G16RevA.03 25-Dec-2016

 ---------------------------------------------------------------
 #p ROCCSD(T)/cc-pVTZ Guess=Read SCF=(VeryTight,CDIIS,VShift=10)
 ---------------------------------------------------------------

 ---------
 O2_O2_195
 ---------
 Symbolic Z-matrix:
 Charge = -1 Multiplicity = 4

                         Standard orientation:
 ---------------------------------------------------------------------
 Center     Atomic      Atomic             Coordinates (Angstroms)
 Number     Number       Type             X           Y           Z
 ---------------------------------------------------------------------
      1          8           0        0.000000    0.000000    2.173037
      2          8           0        0.000000    0.000000    3.525417
      3          8           0        0.000000    0.000000   -3.525417
      4          8           0        0.000000    0.000000   -2.173037
 ---------------------------------------------------------------------

 SCF Done:  E(ROHF) =  -299.196839969     A.U. after    8 cycles
 E2 =    -0.9836803087D+00 EUMP2 =    -0.30018052027767D+03
 CCSD(T)
 CCSD(T)= -0.30022501162D+03

 Unable to determine electronic state:  an orbital has unidentified symmetry.
 Alpha  occ. eigenvalues --  -20.49388 -20.49388 -20.44398 -20.44397  -1.32192
 Alpha  occ. eigenvalues --   -1.32190  -0.95009  -0.94995  -0.52217  -0.52215
 Alpha  occ. eigenvalues --   -0.48723  -0.48706  -0.44840  -0.44761  -0.28965
 Alpha  occ. eigenvalues --   -0.28945  -0.27399  -0.27279
 Alpha virt. eigenvalues --    0.49157   0.50927   0.88657   0.90347   0.90377
 Alpha virt. eigenvalues --    0.90664   0.92408   0.92503   0.95380   1.01158
 Alpha virt. eigenvalues --    1.01305   1.01772   1.01786   1.02341   1.12284

 Mulliken charges and spin densities:
               1          2
     1  O   -0.325089   0.570847
     2  O   -0.174911   0.929153
     3  O   -0.174911   0.929153
     4  O   -0.325089   0.570847
 Sum of Mulliken charges =  -1.00000   3.00000

 Dipole moment (field-independent basis, Debye):
    X=             -0.0000    Y=             -0.0000    Z=             -0.0000  Tot=              0.0000
 Quadrupole moment (field-independent basis, Debye-Ang):
   XX=            -21.8696   YY=            -23.0075   ZZ=            -59.4892
   XY=              0.0000   XZ=              0.0000   YZ=              0.0000

 673673\CCSD=-300.1770792\CCSD(T)=-300.2250116\RMSD=3.315e-09\PG=D*H [C
 Normal termination of Gaussian 16 at Sun Jan 15 07:56:08 2023.
