 Gaussian 16, Revision A.03,
 Gaussian 16:  ES64L-G16RevA.03 25-Dec-2016

 ---------------------------------------------------------------
 #p ROCCSD(T)/cc-pVTZ Guess=Read SCF=(VeryTight,CDIIS,VShift=10)
 ---------------------------------------------------------------

 ---------
 O2_O2_192
 ---------
 Symbolic Z-matrix:
 Charge = -1 Multiplicity = 4

                         Standard orientation:
 ---------------------------------------------------------------------
 Center     Atomic      Atomic             Coordinates (Angstroms)
 Number     Number       Type             X           Y           Z
 ---------------------------------------------------------------------
      1          8           0        0.000000    0.000000    2.151800
      2          8           0        0.000000    0.000000    3.504180
      3          8           0        0.000000    0.000000   -3.504180
      4          8           0        0.000000    0.000000   -2.151800
 ---------------------------------------------------------------------

 SCF Done:  E(ROHF) =  -299.196890795     A.U. after    8 cycles
 E2 =    -0.9835907743D+00 EUMP2 =    -0.30018048156924D+03
 CCSD(T)
 CCSD(T)= -0.30022506310D+03

 Unable to determine electronic state:  an orbital has unidentified symmetry.
 Alpha  occ. eigenvalues --  -20.49343 -20.49343 -20.44365 -20.44365  -1.32153
 Alpha  occ. eigenvalues --   -1.32152  -0.94970  -0.94955  -0.52177  -0.52174
 Alpha  occ. eigenvalues --   -0.48684  -0.48667  -0.44804  -0.44717  -0.28928
 Alpha  occ. eigenvalues --   -0.28906  -0.27360  -0.27242
 Alpha virt. eigenvalues --    0.49118   0.51036   0.88553   0.90381   0.90414
 Alpha virt. eigenvalues --    0.90730   0.92439   0.92544   0.95241   1.01315
 Alpha virt. eigenvalues --    1.01575   1.01784   1.01858   1.02409   1.12322

 Mulliken charges and spin densities:
               1          2
     1  O   -0.324625   0.571270
     2  O   -0.175375   0.928730
     3  O   -0.175375   0.928730
     4  O   -0.324625   0.571270
 Sum of Mulliken charges =  -1.00000   3.00000

 Dipole moment (field-independent basis, Debye):
    X=             -0.0000    Y=              0.0000    Z=              0.0000  Tot=              0.0000
 Quadrupole moment (field-independent basis, Debye-Ang):
   XX=            -21.8697   YY=            -23.0078   ZZ=            -58.9854
   XY=              0.0000   XZ=              0.0000   YZ=              0.0000

 00.1674167\CCSD=-300.1771335\CCSD(T)=-300.2250631\RMSD=3.423e-09\PG=D*
 Normal termination of Gaussian 16 at Sun Jan 15 07:48:12 2023.
