 Gaussian 16, Revision A.03,
 Gaussian 16:  ES64L-G16RevA.03 25-Dec-2016

 ---------------------------------------------------------------
 #p ROCCSD(T)/cc-pVTZ Guess=Read SCF=(VeryTight,CDIIS,VShift=10)
 ---------------------------------------------------------------

 ---------
 O2_O2_208
 ---------
 Symbolic Z-matrix:
 Charge = -1 Multiplicity = 4

                         Standard orientation:
 ---------------------------------------------------------------------
 Center     Atomic      Atomic             Coordinates (Angstroms)
 Number     Number       Type             X           Y           Z
 ---------------------------------------------------------------------
      1          8           0        0.000000    0.000000    2.265068
      2          8           0        0.000000    0.000000    3.617448
      3          8           0        0.000000    0.000000   -3.617448
      4          8           0        0.000000    0.000000   -2.265068
 ---------------------------------------------------------------------

 SCF Done:  E(ROHF) =  -299.196656419     A.U. after    7 cycles
 E2 =    -0.9840497833D+00 EUMP2 =    -0.30018070620197D+03
 CCSD(T)
 CCSD(T)= -0.30022482790D+03

 Unable to determine electronic state:  an orbital has unidentified symmetry.
 Alpha  occ. eigenvalues --  -20.49577 -20.49577 -20.44536 -20.44536  -1.32353
 Alpha  occ. eigenvalues --   -1.32352  -0.95169  -0.95160  -0.52386  -0.52384
 Alpha  occ. eigenvalues --   -0.48885  -0.48867  -0.44996  -0.44945  -0.29118
 Alpha  occ. eigenvalues --   -0.29106  -0.27561  -0.27435
 Alpha virt. eigenvalues --    0.49280   0.50498   0.88983   0.90205   0.90223
 Alpha virt. eigenvalues --    0.90369   0.92273   0.92336   0.95918   0.99688
 Alpha virt. eigenvalues --    1.01237   1.01516   1.01698   1.02084   1.12130

 Mulliken charges and spin densities:
               1          2
     1  O   -0.326995   0.569115
     2  O   -0.173005   0.930885
     3  O   -0.173005   0.930885
     4  O   -0.326995   0.569115
 Sum of Mulliken charges =  -1.00000   3.00000

 Dipole moment (field-independent basis, Debye):
    X=             -0.0000    Y=              0.0000    Z=              0.0000  Tot=              0.0000
 Quadrupole moment (field-independent basis, Debye-Ang):
   XX=            -21.8690   YY=            -23.0067   ZZ=            -61.7246
   XY=              0.0000   XZ=              0.0000   YZ=              0.0000

 0.1671911\CCSD=-300.1768833\CCSD(T)=-300.2248279\RMSD=7.868e-09\PG=D*H
 Normal termination of Gaussian 16 at Sun Jan 15 08:31:56 2023.
