 Gaussian 16, Revision A.03,
 Gaussian 16:  ES64L-G16RevA.03 25-Dec-2016

 ---------------------------------------------------------------
 #p ROCCSD(T)/cc-pVTZ Guess=Read SCF=(VeryTight,CDIIS,VShift=10)
 ---------------------------------------------------------------

 ---------
 O2_O2_226
 ---------
 Symbolic Z-matrix:
 Charge = -1 Multiplicity = 4

                         Standard orientation:
 ---------------------------------------------------------------------
 Center     Atomic      Atomic             Coordinates (Angstroms)
 Number     Number       Type             X           Y           Z
 ---------------------------------------------------------------------
      1          8           0        0.000000    0.000000    2.392496
      2          8           0        0.000000    0.000000    3.744876
      3          8           0        0.000000    0.000000   -3.744876
      4          8           0        0.000000    0.000000   -2.392496
 ---------------------------------------------------------------------

 SCF Done:  E(ROHF) =  -299.196476704     A.U. after    7 cycles
 E2 =    -0.9845156116D+00 EUMP2 =    -0.30018099231558D+03
 CCSD(T)
 CCSD(T)= -0.30022465142D+03

 Unable to determine electronic state:  an orbital has unidentified symmetry.
 Alpha  occ. eigenvalues --  -20.49818 -20.49818 -20.44717 -20.44717  -1.32562
 Alpha  occ. eigenvalues --   -1.32562  -0.95377  -0.95372  -0.52604  -0.52603
 Alpha  occ. eigenvalues --   -0.49095  -0.49076  -0.45201  -0.45175  -0.29318
 Alpha  occ. eigenvalues --   -0.29313  -0.27769  -0.27638
 Alpha virt. eigenvalues --    0.49339   0.50018   0.89189   0.89973   0.90019
 Alpha virt. eigenvalues --    0.90026   0.92090   0.92128   0.96416   0.98360
 Alpha virt. eigenvalues --    1.01097   1.01222   1.01557   1.01801   1.11931

 Mulliken charges and spin densities:
               1          2
     1  O   -0.329380   0.566962
     2  O   -0.170620   0.933038
     3  O   -0.170620   0.933038
     4  O   -0.329380   0.566962
 Sum of Mulliken charges =  -1.00000   3.00000

 Dipole moment (field-independent basis, Debye):
    X=             -0.0000    Y=              0.0000    Z=              0.0000  Tot=              0.0000
 Quadrupole moment (field-independent basis, Debye-Ang):
   XX=            -21.8684   YY=            -23.0060   ZZ=            -64.9594
   XY=              0.0000   XZ=              0.0000   YZ=              0.0000

 670231\CCSD=-300.1766903\CCSD(T)=-300.2246514\RMSD=5.617e-09\PG=D*H [C
 Normal termination of Gaussian 16 at Mon Jan 16 03:43:07 2023.
