 Gaussian 16, Revision A.03,
 Gaussian 16:  ES64L-G16RevA.03 25-Dec-2016

 ---------------------------------------------------------------
 #p ROCCSD(T)/cc-pVTZ Guess=Read SCF=(VeryTight,CDIIS,VShift=10)
 ---------------------------------------------------------------

 ---------
 O2_O2_239
 ---------
 Symbolic Z-matrix:
 Charge = -1 Multiplicity = 4

                         Standard orientation:
 ---------------------------------------------------------------------
 Center     Atomic      Atomic             Coordinates (Angstroms)
 Number     Number       Type             X           Y           Z
 ---------------------------------------------------------------------
      1          8           0        0.000000    0.000000    2.484526
      2          8           0        0.000000    0.000000    3.836906
      3          8           0        0.000000    0.000000   -3.836906
      4          8           0        0.000000    0.000000   -2.484526
 ---------------------------------------------------------------------

 SCF Done:  E(ROHF) =  -299.196383145     A.U. after    7 cycles
 E2 =    -0.9848227000D+00 EUMP2 =    -0.30018120584529D+03
 CCSD(T)
 CCSD(T)= -0.30022456134D+03

 Unable to determine electronic state:  an orbital has unidentified symmetry.
 Alpha  occ. eigenvalues --  -20.49980 -20.49980 -20.44840 -20.44840  -1.32703
 Alpha  occ. eigenvalues --   -1.32703  -0.95517  -0.95514  -0.52750  -0.52750
 Alpha  occ. eigenvalues --   -0.49236  -0.49217  -0.45342  -0.45327  -0.29454
 Alpha  occ. eigenvalues --   -0.29451  -0.27907  -0.27775
 Alpha virt. eigenvalues --    0.49318   0.49743   0.89226   0.89722   0.89891
 Alpha virt. eigenvalues --    0.89895   0.91963   0.91991   0.96596   0.97746
 Alpha virt. eigenvalues --    1.00980   1.01048   1.01441   1.01633   1.11797

 Mulliken charges and spin densities:
               1          2
     1  O   -0.330937   0.565562
     2  O   -0.169063   0.934438
     3  O   -0.169063   0.934438
     4  O   -0.330937   0.565562
 Sum of Mulliken charges =  -1.00000   3.00000

 Dipole moment (field-independent basis, Debye):
    X=             -0.0000    Y=              0.0000    Z=              0.0000  Tot=              0.0000
 Quadrupole moment (field-independent basis, Debye-Ang):
   XX=            -21.8681   YY=            -23.0058   ZZ=            -67.3967
   XY=              0.0000   XZ=              0.0000   YZ=              0.0000

 669382\CCSD=-300.1765888\CCSD(T)=-300.2245613\RMSD=5.286e-09\PG=D*H [C
 Normal termination of Gaussian 16 at Mon Jan 16 03:58:43 2023.
