 Gaussian 16, Revision A.03,
 Gaussian 16:  ES64L-G16RevA.03 25-Dec-2016

 ---------------------------------------------------------------
 #p ROCCSD(T)/cc-pVTZ Guess=Read SCF=(VeryTight,CDIIS,VShift=10)
 ---------------------------------------------------------------

 --------
 O2_O2_24
 --------
 Symbolic Z-matrix:
 Charge = -1 Multiplicity = 4

                         Standard orientation:
 ---------------------------------------------------------------------
 Center     Atomic      Atomic             Coordinates (Angstroms)
 Number     Number       Type             X           Y           Z
 ---------------------------------------------------------------------
      1          8           0        0.000000    0.000000    0.962478
      2          8           0        0.000000    0.000000    2.314859
      3          8           0        0.000000    0.000000   -2.314859
      4          8           0        0.000000    0.000000   -0.962478
 ---------------------------------------------------------------------

 SCF Done:  E(ROHF) =  -299.198846269     A.U. after    9 cycles
 E2 =    -0.9689334330D+00 EUMP2 =    -0.30016777970215D+03
 CCSD(T)
 CCSD(T)= -0.30022481461D+03

 Unable to determine electronic state:  an orbital has unidentified symmetry.
 Alpha  occ. eigenvalues --  -20.44265 -20.44265 -20.41343 -20.41341  -1.29356
 Alpha  occ. eigenvalues --   -1.28069  -0.95057  -0.88561  -0.48905  -0.47876
 Alpha  occ. eigenvalues --   -0.46236  -0.45991  -0.44263  -0.34696  -0.27738
 Alpha  occ. eigenvalues --   -0.25411  -0.23310  -0.21989
 Alpha virt. eigenvalues --    0.52038   0.62779   0.90456   0.91936   0.92862
 Alpha virt. eigenvalues --    0.93753   0.93961   0.96746   0.99572   1.01095
 Alpha virt. eigenvalues --    1.13608   1.14217   1.18808   1.18848   1.23065

 Mulliken charges and spin densities:
               1          2
     1  O   -0.239747   0.607789
     2  O   -0.260253   0.892211
     3  O   -0.260253   0.892211
     4  O   -0.239747   0.607789
 Sum of Mulliken charges =  -1.00000   3.00000

 Dipole moment (field-independent basis, Debye):
    X=             -0.0000    Y=             -0.0000    Z=             -0.0000  Tot=              0.0000
 Quadrupole moment (field-independent basis, Debye-Ang):
   XX=            -21.8245   YY=            -23.0801   ZZ=            -38.8435
   XY=              0.0000   XZ=              0.0000   YZ=              0.0000

 0.1673444\CCSD=-300.1769814\CCSD(T)=-300.2248146\RMSD=3.689e-09\PG=D*H
 Normal termination of Gaussian 16 at Sun Jan 15 00:13:31 2023.
