 Gaussian 16, Revision A.03,
 Gaussian 16:  ES64L-G16RevA.03 25-Dec-2016

 ---------------------------------------------------------------
 #p ROCCSD(T)/cc-pVTZ Guess=Read SCF=(VeryTight,CDIIS,VShift=10)
 ---------------------------------------------------------------

 ---------
 O2_O2_200
 ---------
 Symbolic Z-matrix:
 Charge = -1 Multiplicity = 4

                         Standard orientation:
 ---------------------------------------------------------------------
 Center     Atomic      Atomic             Coordinates (Angstroms)
 Number     Number       Type             X           Y           Z
 ---------------------------------------------------------------------
      1          8           0        0.000000    0.000000    2.208433
      2          8           0        0.000000    0.000000    3.560814
      3          8           0        0.000000    0.000000   -3.560814
      4          8           0        0.000000    0.000000   -2.208433
 ---------------------------------------------------------------------

 SCF Done:  E(ROHF) =  -299.196762771     A.U. after    7 cycles
 E2 =    -0.9838259338D+00 EUMP2 =    -0.30018058870455D+03
 CCSD(T)
 CCSD(T)= -0.30022493388D+03

 Unable to determine electronic state:  an orbital has unidentified symmetry.
 Alpha  occ. eigenvalues --  -20.49462 -20.49462 -20.44452 -20.44451  -1.32255
 Alpha  occ. eigenvalues --   -1.32254  -0.95071  -0.95060  -0.52283  -0.52281
 Alpha  occ. eigenvalues --   -0.48786  -0.48769  -0.44901  -0.44834  -0.29024
 Alpha  occ. eigenvalues --   -0.29008  -0.27463  -0.27340
 Alpha virt. eigenvalues --    0.49213   0.50754   0.88805   0.90292   0.90316
 Alpha virt. eigenvalues --    0.90552   0.92356   0.92437   0.95602   1.00531
 Alpha virt. eigenvalues --    1.01283   1.01675   1.01748   1.02236   1.12224

 Mulliken charges and spin densities:
               1          2
     1  O   -0.325842   0.570161
     2  O   -0.174158   0.929839
     3  O   -0.174158   0.929839
     4  O   -0.325842   0.570161
 Sum of Mulliken charges =  -1.00000   3.00000

 Dipole moment (field-independent basis, Debye):
    X=             -0.0000    Y=             -0.0000    Z=             -0.0000  Tot=              0.0000
 Quadrupole moment (field-independent basis, Debye-Ang):
   XX=            -21.8693   YY=            -23.0071   ZZ=            -60.3390
   XY=              0.0000   XZ=              0.0000   YZ=              0.0000

 0.1672927\CCSD=-300.1769968\CCSD(T)=-300.2249339\RMSD=9.238e-09\PG=D*H
 Normal termination of Gaussian 16 at Sun Jan 15 08:11:26 2023.
