 Gaussian 16, Revision A.03,
 Gaussian 16:  ES64L-G16RevA.03 25-Dec-2016

 ---------------------------------------------------------------
 #p ROCCSD(T)/cc-pVTZ Guess=Read SCF=(VeryTight,CDIIS,VShift=10)
 ---------------------------------------------------------------

 --------
 O2_O2_41
 --------
 Symbolic Z-matrix:
 Charge = -1 Multiplicity = 4

                         Standard orientation:
 ---------------------------------------------------------------------
 Center     Atomic      Atomic             Coordinates (Angstroms)
 Number     Number       Type             X           Y           Z
 ---------------------------------------------------------------------
      1          8           0        0.000000    0.000000    1.082827
      2          8           0        0.000000    0.000000    2.435207
      3          8           0        0.000000    0.000000   -2.435207
      4          8           0        0.000000    0.000000   -1.082827
 ---------------------------------------------------------------------

 SCF Done:  E(ROHF) =  -299.207705929     A.U. after   10 cycles
 E2 =    -0.9723976321D+00 EUMP2 =    -0.30018010356146D+03
 CCSD(T)
 CCSD(T)= -0.30023473911D+03

 Unable to determine electronic state:  an orbital has unidentified symmetry.
 Alpha  occ. eigenvalues --  -20.45337 -20.45337 -20.41995 -20.41994  -1.29543
 Alpha  occ. eigenvalues --   -1.28915  -0.93888  -0.90318  -0.49283  -0.48722
 Alpha  occ. eigenvalues --   -0.46129  -0.45202  -0.44971  -0.37800  -0.27399
 Alpha  occ. eigenvalues --   -0.25310  -0.24721  -0.23264
 Alpha virt. eigenvalues --    0.51459   0.60341   0.90369   0.92163   0.92351
 Alpha virt. eigenvalues --    0.92845   0.93424   0.96130   0.98219   0.99970
 Alpha virt. eigenvalues --    1.13062   1.13731   1.15624   1.16656   1.16727

 Mulliken charges and spin densities:
               1          2
     1  O   -0.261486   0.607245
     2  O   -0.238514   0.892755
     3  O   -0.238514   0.892755
     4  O   -0.261486   0.607245
 Sum of Mulliken charges =  -1.00000   3.00000

 Dipole moment (field-independent basis, Debye):
    X=             -0.0000    Y=              0.0000    Z=              0.0000  Tot=              0.0000
 Quadrupole moment (field-independent basis, Debye-Ang):
   XX=            -21.8619   YY=            -23.0942   ZZ=            -39.8821
   XY=              0.0000   XZ=              0.0000   YZ=              0.0000

 0.1772042\CCSD=-300.186995\CCSD(T)=-300.2347391\RMSD=8.758e-09\PG=D*H
 Normal termination of Gaussian 16 at Sun Jan 15 00:56:49 2023.
