 Gaussian 16, Revision A.03,
 Gaussian 16:  ES64L-G16RevA.03 25-Dec-2016

 ---------------------------------------------------------------
 #p ROCCSD(T)/cc-pVTZ Guess=Read SCF=(VeryTight,CDIIS,VShift=10)
 ---------------------------------------------------------------

 ---------
 O2_O2_227
 ---------
 Symbolic Z-matrix:
 Charge = -1 Multiplicity = 4

                         Standard orientation:
 ---------------------------------------------------------------------
 Center     Atomic      Atomic             Coordinates (Angstroms)
 Number     Number       Type             X           Y           Z
 ---------------------------------------------------------------------
      1          8           0        0.000000    0.000000    2.399575
      2          8           0        0.000000    0.000000    3.751955
      3          8           0        0.000000    0.000000   -3.751955
      4          8           0        0.000000    0.000000   -2.399575
 ---------------------------------------------------------------------

 SCF Done:  E(ROHF) =  -299.196468613     A.U. after    7 cycles
 E2 =    -0.9845400601D+00 EUMP2 =    -0.30018100867272D+03
 CCSD(T)
 CCSD(T)= -0.30022464358D+03

 Unable to determine electronic state:  an orbital has unidentified symmetry.
 Alpha  occ. eigenvalues --  -20.49831 -20.49831 -20.44727 -20.44727  -1.32573
 Alpha  occ. eigenvalues --   -1.32573  -0.95388  -0.95384  -0.52615  -0.52615
 Alpha  occ. eigenvalues --   -0.49106  -0.49087  -0.45212  -0.45187  -0.29329
 Alpha  occ. eigenvalues --   -0.29323  -0.27780  -0.27649
 Alpha virt. eigenvalues --    0.49339   0.49994   0.89195   0.89952   0.90008
 Alpha virt. eigenvalues --    0.90016   0.92080   0.92117   0.96435   0.98304
 Alpha virt. eigenvalues --    1.01088   1.01208   1.01548   1.01788   1.11920

 Mulliken charges and spin densities:
               1          2
     1  O   -0.329505   0.566850
     2  O   -0.170495   0.933150
     3  O   -0.170495   0.933150
     4  O   -0.329505   0.566850
 Sum of Mulliken charges =  -1.00000   3.00000

 Dipole moment (field-independent basis, Debye):
    X=             -0.0000    Y=              0.0000    Z=              0.0000  Tot=              0.0000
 Quadrupole moment (field-independent basis, Debye-Ang):
   XX=            -21.8684   YY=            -23.0060   ZZ=            -65.1438
   XY=              0.0000   XZ=              0.0000   YZ=              0.0000

 670157\CCSD=-300.1766815\CCSD(T)=-300.2246436\RMSD=5.559e-09\PG=D*H [C
 Normal termination of Gaussian 16 at Mon Jan 16 03:44:21 2023.
