 Gaussian 16, Revision A.03,
 Gaussian 16:  ES64L-G16RevA.03 25-Dec-2016

 ---------------------------------------------------------------
 #p ROCCSD(T)/cc-pVTZ Guess=Read SCF=(VeryTight,CDIIS,VShift=10)
 ---------------------------------------------------------------

 --------
 O2_O2_87
 --------
 Symbolic Z-matrix:
 Charge = -1 Multiplicity = 4

                         Standard orientation:
 ---------------------------------------------------------------------
 Center     Atomic      Atomic             Coordinates (Angstroms)
 Number     Number       Type             X           Y           Z
 ---------------------------------------------------------------------
      1          8           0        0.000000    0.000000    1.408474
      2          8           0        0.000000    0.000000    2.760854
      3          8           0        0.000000    0.000000   -2.760854
      4          8           0        0.000000    0.000000   -1.408474
 ---------------------------------------------------------------------

 SCF Done:  E(ROHF) =  -299.203756562     A.U. after   11 cycles
 E2 =    -0.9784392958D+00 EUMP2 =    -0.30018219585805D+03
 CCSD(T)
 CCSD(T)= -0.30023205019D+03

 Unable to determine electronic state:  an orbital has unidentified symmetry.
 Alpha  occ. eigenvalues --  -20.47139 -20.47139 -20.42997 -20.42997  -1.30443
 Alpha  occ. eigenvalues --   -1.30347  -0.93520  -0.92815  -0.50359  -0.50241
 Alpha  occ. eigenvalues --   -0.46969  -0.46795  -0.43824  -0.41851  -0.27559
 Alpha  occ. eigenvalues --   -0.26862  -0.25738  -0.25302
 Alpha virt. eigenvalues --    0.49429   0.56369   0.90861   0.91440   0.92256
 Alpha virt. eigenvalues --    0.92263   0.92652   0.93193   0.94770   0.98422
 Alpha virt. eigenvalues --    0.99696   1.09829   1.10024   1.13458   1.13943

 Mulliken charges and spin densities:
               1          2
     1  O   -0.296766   0.593965
     2  O   -0.203234   0.906035
     3  O   -0.203234   0.906035
     4  O   -0.296766   0.593965
 Sum of Mulliken charges =  -1.00000   3.00000

 Dipole moment (field-independent basis, Debye):
    X=             -0.0000    Y=              0.0000    Z=             -0.0000  Tot=              0.0000
 Quadrupole moment (field-independent basis, Debye-Ang):
   XX=            -21.8758   YY=            -23.0537   ZZ=            -44.2573
   XY=              0.0000   XZ=              0.0000   YZ=              0.0000

 0.1743039\CCSD=-300.1841894\CCSD(T)=-300.2320502\RMSD=4.577e-09\PG=D*H
 Normal termination of Gaussian 16 at Sun Jan 15 03:01:03 2023.
