 Gaussian 16, Revision A.03,
 Gaussian 16:  ES64L-G16RevA.03 25-Dec-2016

 ---------------------------------------------------------------
 #p ROCCSD(T)/cc-pVTZ Guess=Read SCF=(VeryTight,CDIIS,VShift=10)
 ---------------------------------------------------------------

 ---------
 O2_O2_258
 ---------
 Symbolic Z-matrix:
 Charge = -1 Multiplicity = 4

                         Standard orientation:
 ---------------------------------------------------------------------
 Center     Atomic      Atomic             Coordinates (Angstroms)
 Number     Number       Type             X           Y           Z
 ---------------------------------------------------------------------
      1          8           0        0.000000    0.000000    2.619033
      2          8           0        0.000000    0.000000    3.971413
      3          8           0        0.000000    0.000000   -3.971413
      4          8           0        0.000000    0.000000   -2.619033
 ---------------------------------------------------------------------

 SCF Done:  E(ROHF) =  -299.196280991     A.U. after    7 cycles
 E2 =    -0.9852332251D+00 EUMP2 =    -0.30018151421620D+03
 CCSD(T)
 CCSD(T)= -0.30022446487D+03

 Unable to determine electronic state:  an orbital has unidentified symmetry.
 Alpha  occ. eigenvalues --  -20.50199 -20.50199 -20.45008 -20.45008  -1.32895
 Alpha  occ. eigenvalues --   -1.32895  -0.95708  -0.95707  -0.52950  -0.52949
 Alpha  occ. eigenvalues --   -0.49427  -0.49409  -0.45536  -0.45529  -0.29640
 Alpha  occ. eigenvalues --   -0.29638  -0.28096  -0.27963
 Alpha virt. eigenvalues --    0.49226   0.49426   0.89184   0.89421   0.89716
 Alpha virt. eigenvalues --    0.89717   0.91786   0.91807   0.96661   0.97163
 Alpha virt. eigenvalues --    1.00802   1.00829   1.01267   1.01420   1.11614

 Mulliken charges and spin densities:
               1          2
     1  O   -0.332992   0.563720
     2  O   -0.167008   0.936280
     3  O   -0.167008   0.936280
     4  O   -0.332992   0.563720
 Sum of Mulliken charges =  -1.00000   3.00000

 Dipole moment (field-independent basis, Debye):
    X=             -0.0000    Y=             -0.0000    Z=              0.0000  Tot=              0.0000
 Quadrupole moment (field-independent basis, Debye-Ang):
   XX=            -21.8677   YY=            -23.0057   ZZ=            -71.1115
   XY=              0.0000   XZ=              0.0000   YZ=              0.0000

 8484\CCSD=-300.176477\CCSD(T)=-300.2244649\RMSD=5.625e-09\PG=D*H [C*(O
 Normal termination of Gaussian 16 at Mon Jan 16 04:22:21 2023.
