 Gaussian 16, Revision A.03,
 Gaussian 16:  ES64L-G16RevA.03 25-Dec-2016

 ---------------------------------------------------------------
 #p ROCCSD(T)/cc-pVTZ Guess=Read SCF=(VeryTight,CDIIS,VShift=10)
 ---------------------------------------------------------------

 ---------
 O2_O2_102
 ---------
 Symbolic Z-matrix:
 Charge = -1 Multiplicity = 4

                         Standard orientation:
 ---------------------------------------------------------------------
 Center     Atomic      Atomic             Coordinates (Angstroms)
 Number     Number       Type             X           Y           Z
 ---------------------------------------------------------------------
      1          8           0        0.000000    0.000000    1.514663
      2          8           0        0.000000    0.000000    2.867043
      3          8           0        0.000000    0.000000   -2.867043
      4          8           0        0.000000    0.000000   -1.514663
 ---------------------------------------------------------------------

 SCF Done:  E(ROHF) =  -299.201803353     A.U. after    8 cycles
 E2 =    -0.9796059299D+00 EUMP2 =    -0.30018140928318D+03
 CCSD(T)
 CCSD(T)= -0.30023014644D+03

 Unable to determine electronic state:  an orbital has unidentified symmetry.
 Alpha  occ. eigenvalues --  -20.47560 -20.47560 -20.43226 -20.43226  -1.30733
 Alpha  occ. eigenvalues --   -1.30680  -0.93692  -0.93279  -0.50674  -0.50604
 Alpha  occ. eigenvalues --   -0.47252  -0.47158  -0.43835  -0.42544  -0.27737
 Alpha  occ. eigenvalues --   -0.27291  -0.25959  -0.25730
 Alpha virt. eigenvalues --    0.48801   0.55442   0.88640   0.91121   0.91340
 Alpha virt. eigenvalues --    0.91924   0.92831   0.93085   0.94365   0.99150
 Alpha virt. eigenvalues --    1.00157   1.07792   1.08051   1.13282   1.13670

 Mulliken charges and spin densities:
               1          2
     1  O   -0.303335   0.589525
     2  O   -0.196665   0.910475
     3  O   -0.196665   0.910475
     4  O   -0.303335   0.589525
 Sum of Mulliken charges =  -1.00000   3.00000

 Dipole moment (field-independent basis, Debye):
    X=             -0.0000    Y=              0.0000    Z=              0.0000  Tot=              0.0000
 Quadrupole moment (field-independent basis, Debye-Ang):
   XX=            -21.8751   YY=            -23.0407   ZZ=            -46.0032
   XY=              0.0000   XZ=              0.0000   YZ=              0.0000

 00.1723897\CCSD=-300.1822655\CCSD(T)=-300.2301464\RMSD=9.367e-09\PG=D*
 Normal termination of Gaussian 16 at Sun Jan 15 03:41:47 2023.
