 Gaussian 16, Revision A.03,
 Gaussian 16:  ES64L-G16RevA.03 25-Dec-2016

 ---------------------------------------------------------------
 #p ROCCSD(T)/cc-pVTZ Guess=Read SCF=(VeryTight,CDIIS,VShift=10)
 ---------------------------------------------------------------

 ---------
 O2_O2_261
 ---------
 Symbolic Z-matrix:
 Charge = -1 Multiplicity = 4

                         Standard orientation:
 ---------------------------------------------------------------------
 Center     Atomic      Atomic             Coordinates (Angstroms)
 Number     Number       Type             X           Y           Z
 ---------------------------------------------------------------------
      1          8           0        0.000000    0.000000    2.640271
      2          8           0        0.000000    0.000000    3.992651
      3          8           0        0.000000    0.000000   -3.992651
      4          8           0        0.000000    0.000000   -2.640271
 ---------------------------------------------------------------------

 SCF Done:  E(ROHF) =  -299.196267593     A.U. after    7 cycles
 E2 =    -0.9852943024D+00 EUMP2 =    -0.30018156189493D+03
 CCSD(T)
 CCSD(T)= -0.30022445236D+03

 Unable to determine electronic state:  an orbital has unidentified symmetry.
 Alpha  occ. eigenvalues --  -20.50232 -20.50232 -20.45034 -20.45034  -1.32924
 Alpha  occ. eigenvalues --   -1.32923  -0.95737  -0.95736  -0.52980  -0.52979
 Alpha  occ. eigenvalues --   -0.49456  -0.49437  -0.45566  -0.45559  -0.29668
 Alpha  occ. eigenvalues --   -0.29667  -0.28124  -0.27991
 Alpha virt. eigenvalues --    0.49207   0.49383   0.89171   0.89380   0.89689
 Alpha virt. eigenvalues --    0.89690   0.91759   0.91780   0.96656   0.97093
 Alpha virt. eigenvalues --    1.00775   1.00797   1.01239   1.01389   1.11586

 Mulliken charges and spin densities:
               1          2
     1  O   -0.333294   0.563449
     2  O   -0.166706   0.936551
     3  O   -0.166706   0.936551
     4  O   -0.333294   0.563449
 Sum of Mulliken charges =  -1.00000   3.00000

 Dipole moment (field-independent basis, Debye):
    X=             -0.0000    Y=             -0.0000    Z=             -0.0000  Tot=              0.0000
 Quadrupole moment (field-independent basis, Debye-Ang):
   XX=            -21.8676   YY=            -23.0056   ZZ=            -71.7147
   XY=              0.0000   XZ=              0.0000   YZ=              0.0000

 668369\CCSD=-300.1764622\CCSD(T)=-300.2244524\RMSD=5.683e-09\PG=D*H [C
 Normal termination of Gaussian 16 at Mon Jan 16 04:25:51 2023.
