 Gaussian 16, Revision A.03,
 Gaussian 16:  ES64L-G16RevA.03 25-Dec-2016

 ---------------------------------------------------------------
 #p ROCCSD(T)/cc-pVTZ Guess=Read SCF=(VeryTight,CDIIS,VShift=10)
 ---------------------------------------------------------------

 --------
 O2_O2_91
 --------
 Symbolic Z-matrix:
 Charge = -1 Multiplicity = 4

                         Standard orientation:
 ---------------------------------------------------------------------
 Center     Atomic      Atomic             Coordinates (Angstroms)
 Number     Number       Type             X           Y           Z
 ---------------------------------------------------------------------
      1          8           0        0.000000    0.000000    1.436791
      2          8           0        0.000000    0.000000    2.789171
      3          8           0        0.000000    0.000000   -2.789171
      4          8           0        0.000000    0.000000   -1.436791
 ---------------------------------------------------------------------

 SCF Done:  E(ROHF) =  -299.203197099     A.U. after   11 cycles
 E2 =    -0.9787769446D+00 EUMP2 =    -0.30018197404377D+03
 CCSD(T)
 CCSD(T)= -0.30023151341D+03

 Unable to determine electronic state:  an orbital has unidentified symmetry.
 Alpha  occ. eigenvalues --  -20.47257 -20.47257 -20.43060 -20.43060  -1.30521
 Alpha  occ. eigenvalues --   -1.30439  -0.93560  -0.92948  -0.50445  -0.50342
 Alpha  occ. eigenvalues --   -0.47045  -0.46897  -0.43817  -0.42054  -0.27604
 Alpha  occ. eigenvalues --   -0.26984  -0.25795  -0.25424
 Alpha virt. eigenvalues --    0.49250   0.56111   0.90933   0.91196   0.91415
 Alpha virt. eigenvalues --    0.92165   0.92706   0.93100   0.94660   0.98605
 Alpha virt. eigenvalues --    0.99804   1.09259   1.09471   1.13414   1.13869

 Mulliken charges and spin densities:
               1          2
     1  O   -0.298676   0.592741
     2  O   -0.201324   0.907259
     3  O   -0.201324   0.907259
     4  O   -0.298676   0.592741
 Sum of Mulliken charges =  -1.00000   3.00000

 Dipole moment (field-independent basis, Debye):
    X=             -0.0000    Y=             -0.0000    Z=             -0.0000  Tot=              0.0000
 Quadrupole moment (field-independent basis, Debye-Ang):
   XX=            -21.8756   YY=            -23.0500   ZZ=            -44.7102
   XY=              0.0000   XZ=              0.0000   YZ=              0.0000

 1737618\CCSD=-300.183646\CCSD(T)=-300.2315134\RMSD=4.866e-09\PG=D*H [C
 Normal termination of Gaussian 16 at Sun Jan 15 03:13:07 2023.
