 Gaussian 16, Revision A.03,
 Gaussian 16:  ES64L-G16RevA.03 25-Dec-2016

 ---------------------------------------------------------------
 #p ROCCSD(T)/cc-pVTZ Guess=Read SCF=(VeryTight,CDIIS,VShift=10)
 ---------------------------------------------------------------

 --------
 O2_O2_92
 --------
 Symbolic Z-matrix:
 Charge = -1 Multiplicity = 4

                         Standard orientation:
 ---------------------------------------------------------------------
 Center     Atomic      Atomic             Coordinates (Angstroms)
 Number     Number       Type             X           Y           Z
 ---------------------------------------------------------------------
      1          8           0        0.000000    0.000000    1.443871
      2          8           0        0.000000    0.000000    2.796251
      3          8           0        0.000000    0.000000   -2.796251
      4          8           0        0.000000    0.000000   -1.443871
 ---------------------------------------------------------------------

 SCF Done:  E(ROHF) =  -299.203061313     A.U. after   11 cycles
 E2 =    -0.9788581431D+00 EUMP2 =    -0.30018191945645D+03
 CCSD(T)
 CCSD(T)= -0.30023138205D+03

 Unable to determine electronic state:  an orbital has unidentified symmetry.
 Alpha  occ. eigenvalues --  -20.47286 -20.47286 -20.43076 -20.43076  -1.30541
 Alpha  occ. eigenvalues --   -1.30462  -0.93571  -0.92981  -0.50466  -0.50367
 Alpha  occ. eigenvalues --   -0.47064  -0.46922  -0.43816  -0.42102  -0.27615
 Alpha  occ. eigenvalues --   -0.27014  -0.25810  -0.25454
 Alpha virt. eigenvalues --    0.49206   0.56048   0.90932   0.90951   0.91409
 Alpha virt. eigenvalues --    0.92143   0.92719   0.93093   0.94633   0.98653
 Alpha virt. eigenvalues --    0.99833   1.09120   1.09335   1.13402   1.13851

 Mulliken charges and spin densities:
               1          2
     1  O   -0.299134   0.592439
     2  O   -0.200866   0.907561
     3  O   -0.200866   0.907561
     4  O   -0.299134   0.592439
 Sum of Mulliken charges =  -1.00000   3.00000

 Dipole moment (field-independent basis, Debye):
    X=             -0.0000    Y=              0.0000    Z=             -0.0000  Tot=              0.0000
 Quadrupole moment (field-independent basis, Debye-Ang):
   XX=            -21.8756   YY=            -23.0491   ZZ=            -44.8248
   XY=              0.0000   XZ=              0.0000   YZ=              0.0000

 0.1736294\CCSD=-300.1835131\CCSD(T)=-300.2313821\RMSD=4.928e-09\PG=D*H
 Normal termination of Gaussian 16 at Sun Jan 15 03:15:55 2023.
