 Gaussian 16, Revision A.03,
 Gaussian 16:  ES64L-G16RevA.03 25-Dec-2016

 ---------------------------------------------------------------
 #p ROCCSD(T)/cc-pVTZ Guess=Read SCF=(VeryTight,CDIIS,VShift=10)
 ---------------------------------------------------------------

 ---------
 O2_O2_187
 ---------
 Symbolic Z-matrix:
 Charge = -1 Multiplicity = 4

                         Standard orientation:
 ---------------------------------------------------------------------
 Center     Atomic      Atomic             Coordinates (Angstroms)
 Number     Number       Type             X           Y           Z
 ---------------------------------------------------------------------
      1          8           0        0.000000    0.000000    2.116403
      2          8           0        0.000000    0.000000    3.468783
      3          8           0        0.000000    0.000000   -3.468783
      4          8           0        0.000000    0.000000   -2.116403
 ---------------------------------------------------------------------

 SCF Done:  E(ROHF) =  -299.196983826     A.U. after    8 cycles
 E2 =    -0.9834377801D+00 EUMP2 =    -0.30018042160585D+03
 CCSD(T)
 CCSD(T)= -0.30022515792D+03

 Unable to determine electronic state:  an orbital has unidentified symmetry.
 Alpha  occ. eigenvalues --  -20.49266 -20.49266 -20.44309 -20.44309  -1.32088
 Alpha  occ. eigenvalues --   -1.32086  -0.94906  -0.94887  -0.52108  -0.52105
 Alpha  occ. eigenvalues --   -0.48617  -0.48602  -0.44743  -0.44640  -0.28867
 Alpha  occ. eigenvalues --   -0.28840  -0.27294  -0.27179
 Alpha virt. eigenvalues --    0.49045   0.51225   0.88354   0.90437   0.90478
 Alpha virt. eigenvalues --    0.90836   0.92491   0.92614   0.95002   1.01325
 Alpha virt. eigenvalues --    1.01798   1.01986   1.02344   1.02531   1.12386

 Mulliken charges and spin densities:
               1          2
     1  O   -0.323830   0.571995
     2  O   -0.176170   0.928005
     3  O   -0.176170   0.928005
     4  O   -0.323830   0.571995
 Sum of Mulliken charges =  -1.00000   3.00000

 Dipole moment (field-independent basis, Debye):
    X=             -0.0000    Y=             -0.0000    Z=             -0.0000  Tot=              0.0000
 Quadrupole moment (field-independent basis, Debye-Ang):
   XX=            -21.8699   YY=            -23.0082   ZZ=            -58.1556
   XY=              0.0000   XZ=              0.0000   YZ=              0.0000

 00.1675078\CCSD=-300.1772328\CCSD(T)=-300.2251579\RMSD=3.583e-09\PG=D*
 Normal termination of Gaussian 16 at Sun Jan 15 07:35:04 2023.
