 Gaussian 16, Revision A.03,
 Gaussian 16:  ES64L-G16RevA.03 25-Dec-2016

 ---------------------------------------------------------------
 #p ROCCSD(T)/cc-pVTZ Guess=Read SCF=(VeryTight,CDIIS,VShift=10)
 ---------------------------------------------------------------

 ---------
 O2_O2_168
 ---------
 Symbolic Z-matrix:
 Charge = -1 Multiplicity = 4

                         Standard orientation:
 ---------------------------------------------------------------------
 Center     Atomic      Atomic             Coordinates (Angstroms)
 Number     Number       Type             X           Y           Z
 ---------------------------------------------------------------------
      1          8           0        0.000000    0.000000    1.981897
      2          8           0        0.000000    0.000000    3.334277
      3          8           0        0.000000    0.000000   -3.334277
      4          8           0        0.000000    0.000000   -1.981897
 ---------------------------------------------------------------------

 SCF Done:  E(ROHF) =  -299.197453644     A.U. after    8 cycles
 E2 =    -0.9828095399D+00 EUMP2 =    -0.30018026318356D+03
 CCSD(T)
 CCSD(T)= -0.30022564539D+03

 Unable to determine electronic state:  an orbital has unidentified symmetry.
 Alpha  occ. eigenvalues --  -20.48955 -20.48955 -20.44090 -20.44090  -1.31826
 Alpha  occ. eigenvalues --   -1.31822  -0.94649  -0.94611  -0.51834  -0.51827
 Alpha  occ. eigenvalues --   -0.48350  -0.48340  -0.44506  -0.44318  -0.28625
 Alpha  occ. eigenvalues --   -0.28572  -0.27023  -0.26930
 Alpha virt. eigenvalues --    0.48688   0.52027   0.87308   0.90655   0.90738
 Alpha virt. eigenvalues --    0.91173   0.92678   0.92911   0.94132   1.01267
 Alpha virt. eigenvalues --    1.01768   1.02608   1.03118   1.06211   1.12638

 Mulliken charges and spin densities:
               1          2
     1  O   -0.320540   0.575003
     2  O   -0.179460   0.924997
     3  O   -0.179460   0.924997
     4  O   -0.320540   0.575003
 Sum of Mulliken charges =  -1.00000   3.00000

 Dipole moment (field-independent basis, Debye):
    X=             -0.0000    Y=             -0.0000    Z=             -0.0000  Tot=              0.0000
 Quadrupole moment (field-independent basis, Debye-Ang):
   XX=            -21.8709   YY=            -23.0110   ZZ=            -55.1169
   XY=              0.0000   XZ=              0.0000   YZ=              0.0000

 00.1679766\CCSD=-300.1777352\CCSD(T)=-300.2256454\RMSD=3.879e-09\PG=D*
 Normal termination of Gaussian 16 at Sun Jan 15 06:41:33 2023.
