 Gaussian 16, Revision A.03,
 Gaussian 16:  ES64L-G16RevA.03 25-Dec-2016

 ---------------------------------------------------------------
 #p ROCCSD(T)/cc-pVTZ Guess=Read SCF=(VeryTight,CDIIS,VShift=10)
 ---------------------------------------------------------------

 --------
 O2_O2_97
 --------
 Symbolic Z-matrix:
 Charge = -1 Multiplicity = 4

                         Standard orientation:
 ---------------------------------------------------------------------
 Center     Atomic      Atomic             Coordinates (Angstroms)
 Number     Number       Type             X           Y           Z
 ---------------------------------------------------------------------
      1          8           0        0.000000    0.000000    1.479267
      2          8           0        0.000000    0.000000    2.831647
      3          8           0        0.000000    0.000000   -2.831647
      4          8           0        0.000000    0.000000   -1.479267
 ---------------------------------------------------------------------

 SCF Done:  E(ROHF) =  -299.202409058     A.U. after   11 cycles
 E2 =    -0.9792463029D+00 EUMP2 =    -0.30018165536079D+03
 CCSD(T)
 CCSD(T)= -0.30023074552D+03

 Unable to determine electronic state:  an orbital has unidentified symmetry.
 Alpha  occ. eigenvalues --  -20.47425 -20.47425 -20.43152 -20.43152  -1.30638
 Alpha  occ. eigenvalues --   -1.30573  -0.93629  -0.93135  -0.50571  -0.50488
 Alpha  occ. eigenvalues --   -0.47159  -0.47043  -0.43820  -0.42332  -0.27675
 Alpha  occ. eigenvalues --   -0.27157  -0.25884  -0.25596
 Alpha virt. eigenvalues --    0.48995   0.55740   0.89700   0.91038   0.91376
 Alpha virt. eigenvalues --    0.92032   0.92779   0.93083   0.94498   0.98897
 Alpha virt. eigenvalues --    0.99988   1.08439   1.08676   1.13344   1.13760

 Mulliken charges and spin densities:
               1          2
     1  O   -0.301319   0.590959
     2  O   -0.198681   0.909041
     3  O   -0.198681   0.909041
     4  O   -0.301319   0.590959
 Sum of Mulliken charges =  -1.00000   3.00000

 Dipole moment (field-independent basis, Debye):
    X=             -0.0000    Y=              0.0000    Z=              0.0000  Tot=              0.0000
 Quadrupole moment (field-independent basis, Debye-Ang):
   XX=            -21.8753   YY=            -23.0447   ZZ=            -45.4069
   XY=              0.0000   XZ=              0.0000   YZ=              0.0000

 0.1729897\CCSD=-300.1828699\CCSD(T)=-300.2307455\RMSD=5.174e-09\PG=D*H
 Normal termination of Gaussian 16 at Sun Jan 15 03:28:43 2023.
