 Gaussian 16, Revision A.03,
 Gaussian 16:  ES64L-G16RevA.03 25-Dec-2016

 ---------------------------------------------------------------
 #p ROCCSD(T)/cc-pVTZ Guess=Read SCF=(VeryTight,CDIIS,VShift=10)
 ---------------------------------------------------------------

 --------
 O2_O2_93
 --------
 Symbolic Z-matrix:
 Charge = -1 Multiplicity = 4

                         Standard orientation:
 ---------------------------------------------------------------------
 Center     Atomic      Atomic             Coordinates (Angstroms)
 Number     Number       Type             X           Y           Z
 ---------------------------------------------------------------------
      1          8           0        0.000000    0.000000    1.450950
      2          8           0        0.000000    0.000000    2.803330
      3          8           0        0.000000    0.000000   -2.803330
      4          8           0        0.000000    0.000000   -1.450950
 ---------------------------------------------------------------------

 SCF Done:  E(ROHF) =  -299.202927268     A.U. after   11 cycles
 E2 =    -0.9789381104D+00 EUMP2 =    -0.30018186537842D+03
 CCSD(T)
 CCSD(T)= -0.30023125198D+03

 Unable to determine electronic state:  an orbital has unidentified symmetry.
 Alpha  occ. eigenvalues --  -20.47314 -20.47314 -20.43091 -20.43091  -1.30560
 Alpha  occ. eigenvalues --   -1.30485  -0.93582  -0.93012  -0.50487  -0.50392
 Alpha  occ. eigenvalues --   -0.47083  -0.46947  -0.43816  -0.42150  -0.27627
 Alpha  occ. eigenvalues --   -0.27043  -0.25825  -0.25483
 Alpha virt. eigenvalues --    0.49163   0.55986   0.90673   0.90969   0.91402
 Alpha virt. eigenvalues --    0.92121   0.92731   0.93089   0.94606   0.98701
 Alpha virt. eigenvalues --    0.99863   1.08981   1.09201   1.13391   1.13833

 Mulliken charges and spin densities:
               1          2
     1  O   -0.299585   0.592139
     2  O   -0.200415   0.907861
     3  O   -0.200415   0.907861
     4  O   -0.299585   0.592139
 Sum of Mulliken charges =  -1.00000   3.00000

 Dipole moment (field-independent basis, Debye):
    X=             -0.0000    Y=              0.0000    Z=             -0.0000  Tot=              0.0000
 Quadrupole moment (field-independent basis, Debye-Ang):
   XX=            -21.8755   YY=            -23.0482   ZZ=            -44.9401
   XY=              0.0000   XZ=              0.0000   YZ=              0.0000

 0.1734985\CCSD=-300.1833816\CCSD(T)=-300.231252\RMSD=4.985e-09\PG=D*H
 Normal termination of Gaussian 16 at Sun Jan 15 03:18:32 2023.
