 Gaussian 16, Revision A.03,
 Gaussian 16:  ES64L-G16RevA.03 25-Dec-2016

 ---------------------------------------------------------------
 #p ROCCSD(T)/cc-pVTZ Guess=Read SCF=(VeryTight,CDIIS,VShift=10)
 ---------------------------------------------------------------

 ---------
 O2_O2_140
 ---------
 Symbolic Z-matrix:
 Charge = -1 Multiplicity = 4

                         Standard orientation:
 ---------------------------------------------------------------------
 Center     Atomic      Atomic             Coordinates (Angstroms)
 Number     Number       Type             X           Y           Z
 ---------------------------------------------------------------------
      1          8           0        0.000000    0.000000    1.783676
      2          8           0        0.000000    0.000000    3.136056
      3          8           0        0.000000    0.000000   -3.136056
      4          8           0        0.000000    0.000000   -1.783676
 ---------------------------------------------------------------------

 SCF Done:  E(ROHF) =  -299.198628979     A.U. after    8 cycles
 E2 =    -0.9817083914D+00 EUMP2 =    -0.30018033737056D+03
 CCSD(T)
 CCSD(T)= -0.30022688729D+03

 Unable to determine electronic state:  an orbital has unidentified symmetry.
 Alpha  occ. eigenvalues --  -20.48433 -20.48433 -20.43745 -20.43745  -1.31399
 Alpha  occ. eigenvalues --   -1.31387  -0.94244  -0.94138  -0.51384  -0.51365
 Alpha  occ. eigenvalues --   -0.47914  -0.47905  -0.44164  -0.43731  -0.28249
 Alpha  occ. eigenvalues --   -0.28112  -0.26559  -0.26533
 Alpha virt. eigenvalues --    0.48219   0.53383   0.85809   0.90977   0.91184
 Alpha virt. eigenvalues --    0.91404   0.92888   0.93349   0.93446   1.00768
 Alpha virt. eigenvalues --    1.01373   1.04097   1.04521   1.12541   1.13042

 Mulliken charges and spin densities:
               1          2
     1  O   -0.314698   0.580276
     2  O   -0.185302   0.919724
     3  O   -0.185302   0.919724
     4  O   -0.314698   0.580276
 Sum of Mulliken charges =  -1.00000   3.00000

 Dipole moment (field-independent basis, Debye):
    X=             -0.0000    Y=              0.0000    Z=              0.0000  Tot=              0.0000
 Quadrupole moment (field-independent basis, Debye-Ang):
   XX=            -21.8726   YY=            -23.0188   ZZ=            -50.9735
   XY=              0.0000   XZ=              0.0000   YZ=              0.0000

 .1691771\CCSD=-300.1789896\CCSD(T)=-300.2268873\RMSD=4.804e-09\PG=D*H
 Normal termination of Gaussian 16 at Sun Jan 15 05:24:09 2023.
