 Gaussian 16, Revision A.03,
 Gaussian 16:  ES64L-G16RevA.03 25-Dec-2016

 ---------------------------------------------------------------
 #p ROCCSD(T)/cc-pVTZ Guess=Read SCF=(VeryTight,CDIIS,VShift=10)
 ---------------------------------------------------------------

 ---------
 O2_O2_109
 ---------
 Symbolic Z-matrix:
 Charge = -1 Multiplicity = 4

                         Standard orientation:
 ---------------------------------------------------------------------
 Center     Atomic      Atomic             Coordinates (Angstroms)
 Number     Number       Type             X           Y           Z
 ---------------------------------------------------------------------
      1          8           0        0.000000    0.000000    1.564218
      2          8           0        0.000000    0.000000    2.916598
      3          8           0        0.000000    0.000000   -2.916598
      4          8           0        0.000000    0.000000   -1.564218
 ---------------------------------------------------------------------

 SCF Done:  E(ROHF) =  -299.201035211     A.U. after    8 cycles
 E2 =    -0.9800710276D+00 EUMP2 =    -0.30018110623877D+03
 CCSD(T)
 CCSD(T)= -0.30022937608D+03

 Unable to determine electronic state:  an orbital has unidentified symmetry.
 Alpha  occ. eigenvalues --  -20.47739 -20.47739 -20.43327 -20.43327  -1.30863
 Alpha  occ. eigenvalues --   -1.30823  -0.93787  -0.93465  -0.50814  -0.50759
 Alpha  occ. eigenvalues --   -0.47381  -0.47312  -0.43871  -0.42814  -0.27828
 Alpha  occ. eigenvalues --   -0.27467  -0.26065  -0.25907
 Alpha virt. eigenvalues --    0.48565   0.55040   0.87453   0.91222   0.91285
 Alpha virt. eigenvalues --    0.91777   0.92886   0.93098   0.94182   0.99504
 Alpha virt. eigenvalues --    1.00405   1.06945   1.07236   1.13190   1.13547

 Mulliken charges and spin densities:
               1          2
     1  O   -0.305902   0.587608
     2  O   -0.194098   0.912392
     3  O   -0.194098   0.912392
     4  O   -0.305902   0.587608
 Sum of Mulliken charges =  -1.00000   3.00000

 Dipole moment (field-independent basis, Debye):
    X=             -0.0000    Y=              0.0000    Z=              0.0000  Tot=              0.0000
 Quadrupole moment (field-independent basis, Debye-Ang):
   XX=            -21.8746   YY=            -23.0354   ZZ=            -46.8611
   XY=              0.0000   XZ=              0.0000   YZ=              0.0000

 00.1716225\CCSD=-300.1814896\CCSD(T)=-300.2293761\RMSD=8.518e-09\PG=D*
 Normal termination of Gaussian 16 at Sun Jan 15 04:00:20 2023.
