 Gaussian 16, Revision A.03,
 Gaussian 16:  ES64L-G16RevA.03 25-Dec-2016

 ---------------------------------------------------------------
 #p ROCCSD(T)/cc-pVTZ Guess=Read SCF=(VeryTight,CDIIS,VShift=10)
 ---------------------------------------------------------------

 ---------
 O2_O2_221
 ---------
 Symbolic Z-matrix:
 Charge = -1 Multiplicity = 4

                         Standard orientation:
 ---------------------------------------------------------------------
 Center     Atomic      Atomic             Coordinates (Angstroms)
 Number     Number       Type             X           Y           Z
 ---------------------------------------------------------------------
      1          8           0        0.000000    0.000000    2.357099
      2          8           0        0.000000    0.000000    3.709479
      3          8           0        0.000000    0.000000   -3.709479
      4          8           0        0.000000    0.000000   -2.357099
 ---------------------------------------------------------------------

 SCF Done:  E(ROHF) =  -299.196519798     A.U. after    7 cycles
 E2 =    -0.9843911862D+00 EUMP2 =    -0.30018091098466D+03
 CCSD(T)
 CCSD(T)= -0.30022469345D+03

 Unable to determine electronic state:  an orbital has unidentified symmetry.
 Alpha  occ. eigenvalues --  -20.49753 -20.49753 -20.44668 -20.44668  -1.32506
 Alpha  occ. eigenvalues --   -1.32505  -0.95321  -0.95315  -0.52545  -0.52544
 Alpha  occ. eigenvalues --   -0.49038  -0.49020  -0.45145  -0.45114  -0.29264
 Alpha  occ. eigenvalues --   -0.29257  -0.27713  -0.27583
 Alpha virt. eigenvalues --    0.49334   0.50139   0.89154   0.90069   0.90078
 Alpha virt. eigenvalues --    0.90079   0.92140   0.92183   0.96309   0.98663
 Alpha virt. eigenvalues --    1.01139   1.01297   1.01599   1.01873   1.11985

 Mulliken charges and spin densities:
               1          2
     1  O   -0.328745   0.567533
     2  O   -0.171255   0.932467
     3  O   -0.171255   0.932467
     4  O   -0.328745   0.567533
 Sum of Mulliken charges =  -1.00000   3.00000

 Dipole moment (field-independent basis, Debye):
    X=             -0.0000    Y=             -0.0000    Z=              0.0000  Tot=              0.0000
 Quadrupole moment (field-independent basis, Debye-Ang):
   XX=            -21.8686   YY=            -23.0061   ZZ=            -64.0445
   XY=              0.0000   XZ=              0.0000   YZ=              0.0000

 0629\CCSD=-300.1767368\CCSD(T)=-300.2246935\RMSD=6.000e-09\PG=D*H [C*(
 Normal termination of Gaussian 16 at Mon Jan 16 03:37:14 2023.
