 Gaussian 16, Revision A.03,
 Gaussian 16:  ES64L-G16RevA.03 25-Dec-2016

 ---------------------------------------------------------------
 #p ROCCSD(T)/cc-pVTZ Guess=Read SCF=(VeryTight,CDIIS,VShift=10)
 ---------------------------------------------------------------

 --------
 O2_O2_48
 --------
 Symbolic Z-matrix:
 Charge = -1 Multiplicity = 4

                         Standard orientation:
 ---------------------------------------------------------------------
 Center     Atomic      Atomic             Coordinates (Angstroms)
 Number     Number       Type             X           Y           Z
 ---------------------------------------------------------------------
      1          8           0        0.000000    0.000000    1.132382
      2          8           0        0.000000    0.000000    2.484762
      3          8           0        0.000000    0.000000   -2.484762
      4          8           0        0.000000    0.000000   -1.132382
 ---------------------------------------------------------------------

 SCF Done:  E(ROHF) =  -299.208322172     A.U. after   10 cycles
 E2 =    -0.9736328437D+00 EUMP2 =    -0.30018195501578D+03
 CCSD(T)
 CCSD(T)= -0.30023570091D+03

 Unable to determine electronic state:  an orbital has unidentified symmetry.
 Alpha  occ. eigenvalues --  -20.45688 -20.45688 -20.42203 -20.42202  -1.29666
 Alpha  occ. eigenvalues --   -1.29196  -0.93655  -0.90864  -0.49452  -0.49011
 Alpha  occ. eigenvalues --   -0.46237  -0.45515  -0.44616  -0.38723  -0.27352
 Alpha  occ. eigenvalues --   -0.25328  -0.25171  -0.23680
 Alpha virt. eigenvalues --    0.51181   0.59555   0.90389   0.91942   0.92516
 Alpha virt. eigenvalues --    0.92612   0.93226   0.95905   0.97930   0.99703
 Alpha virt. eigenvalues --    1.09881   1.13731   1.14807   1.15679   1.15762

 Mulliken charges and spin densities:
               1          2
     1  O   -0.268937   0.605810
     2  O   -0.231063   0.894190
     3  O   -0.231063   0.894190
     4  O   -0.268937   0.605810
 Sum of Mulliken charges =  -1.00000   3.00000

 Dipole moment (field-independent basis, Debye):
    X=             -0.0000    Y=             -0.0000    Z=             -0.0000  Tot=              0.0000
 Quadrupole moment (field-independent basis, Debye-Ang):
   XX=            -21.8686   YY=            -23.0914   ZZ=            -40.4247
   XY=              0.0000   XZ=              0.0000   YZ=              0.0000

 1781229\CCSD=-300.1879467\CCSD(T)=-300.2357009\RMSD=5.227e-09\PG=D*H [
 Normal termination of Gaussian 16 at Sun Jan 15 01:16:50 2023.
