 Gaussian 16, Revision A.03,
 Gaussian 16:  ES64L-G16RevA.03 25-Dec-2016

 ---------------------------------------------------------------
 #p ROCCSD(T)/cc-pVTZ Guess=Read SCF=(VeryTight,CDIIS,VShift=10)
 ---------------------------------------------------------------

 --------
 O2_O2_33
 --------
 Symbolic Z-matrix:
 Charge = -1 Multiplicity = 4

                         Standard orientation:
 ---------------------------------------------------------------------
 Center     Atomic      Atomic             Coordinates (Angstroms)
 Number     Number       Type             X           Y           Z
 ---------------------------------------------------------------------
      1          8           0        0.000000    0.000000    1.026192
      2          8           0        0.000000    0.000000    2.378572
      3          8           0        0.000000    0.000000   -2.378572
      4          8           0        0.000000    0.000000   -1.026192
 ---------------------------------------------------------------------

 SCF Done:  E(ROHF) =  -299.205279145     A.U. after   10 cycles
 E2 =    -0.9708376433D+00 EUMP2 =    -0.30017611678872D+03
 CCSD(T)
 CCSD(T)= -0.30023184494D+03

 Unable to determine electronic state:  an orbital has unidentified symmetry.
 Alpha  occ. eigenvalues --  -20.44878 -20.44878 -20.41717 -20.41715  -1.29428
 Alpha  occ. eigenvalues --   -1.28550  -0.94309  -0.89577  -0.49096  -0.48353
 Alpha  occ. eigenvalues --   -0.46035  -0.45490  -0.44796  -0.36517  -0.27510
 Alpha  occ. eigenvalues --   -0.25328  -0.24120  -0.22716
 Alpha virt. eigenvalues --    0.51755   0.61378   0.90377   0.92154   0.92472
 Alpha virt. eigenvalues --    0.93224   0.93665   0.96405   0.98736   1.00407
 Alpha virt. eigenvalues --    1.13700   1.14134   1.17711   1.17768   1.18909

 Mulliken charges and spin densities:
               1          2
     1  O   -0.251954   0.608150
     2  O   -0.248046   0.891850
     3  O   -0.248046   0.891850
     4  O   -0.251954   0.608150
 Sum of Mulliken charges =  -1.00000   3.00000

 Dipole moment (field-independent basis, Debye):
    X=             -0.0000    Y=              0.0000    Z=             -0.0000  Tot=              0.0000
 Quadrupole moment (field-independent basis, Debye-Ang):
   XX=            -21.8490   YY=            -23.0923   ZZ=            -39.3381
   XY=              0.0000   XZ=              0.0000   YZ=              0.0000

 0.174352\CCSD=-300.184088\CCSD(T)=-300.2318449\RMSD=8.429e-09\PG=D*H [
 Normal termination of Gaussian 16 at Sun Jan 15 00:36:22 2023.
