 Gaussian 16, Revision A.03,
 Gaussian 16:  ES64L-G16RevA.03 25-Dec-2016

 ---------------------------------------------------------------
 #p ROCCSD(T)/cc-pVTZ Guess=Read SCF=(VeryTight,CDIIS,VShift=10)
 ---------------------------------------------------------------

 ---------
 O2_O2_193
 ---------
 Symbolic Z-matrix:
 Charge = -1 Multiplicity = 4

                         Standard orientation:
 ---------------------------------------------------------------------
 Center     Atomic      Atomic             Coordinates (Angstroms)
 Number     Number       Type             X           Y           Z
 ---------------------------------------------------------------------
      1          8           0        0.000000    0.000000    2.158879
      2          8           0        0.000000    0.000000    3.511259
      3          8           0        0.000000    0.000000   -3.511259
      4          8           0        0.000000    0.000000   -2.158879
 ---------------------------------------------------------------------

 SCF Done:  E(ROHF) =  -299.196873456     A.U. after    8 cycles
 E2 =    -0.9836208037D+00 EUMP2 =    -0.30018049426020D+03
 CCSD(T)
 CCSD(T)= -0.30022504551D+03

 Unable to determine electronic state:  an orbital has unidentified symmetry.
 Alpha  occ. eigenvalues --  -20.49358 -20.49358 -20.44376 -20.44376  -1.32166
 Alpha  occ. eigenvalues --   -1.32165  -0.94983  -0.94968  -0.52190  -0.52187
 Alpha  occ. eigenvalues --   -0.48697  -0.48680  -0.44816  -0.44732  -0.28940
 Alpha  occ. eigenvalues --   -0.28919  -0.27373  -0.27254
 Alpha virt. eigenvalues --    0.49132   0.50999   0.88589   0.90370   0.90402
 Alpha virt. eigenvalues --    0.90709   0.92429   0.92530   0.95288   1.01312
 Alpha virt. eigenvalues --    1.01433   1.01780   1.01834   1.02386   1.12309

 Mulliken charges and spin densities:
               1          2
     1  O   -0.324781   0.571128
     2  O   -0.175219   0.928872
     3  O   -0.175219   0.928872
     4  O   -0.324781   0.571128
 Sum of Mulliken charges =  -1.00000   3.00000

 Dipole moment (field-independent basis, Debye):
    X=             -0.0000    Y=              0.0000    Z=              0.0000  Tot=              0.0000
 Quadrupole moment (field-independent basis, Debye-Ang):
   XX=            -21.8696   YY=            -23.0077   ZZ=            -59.1528
   XY=              0.0000   XZ=              0.0000   YZ=              0.0000

 00.1673998\CCSD=-300.177115\CCSD(T)=-300.2250455\RMSD=3.388e-09\PG=D*H
 Normal termination of Gaussian 16 at Sun Jan 15 07:50:50 2023.
