 Gaussian 16, Revision A.03,
 Gaussian 16:  ES64L-G16RevA.03 25-Dec-2016

 ---------------------------------------------------------------
 #p ROCCSD(T)/cc-pVTZ Guess=Read SCF=(VeryTight,CDIIS,VShift=10)
 ---------------------------------------------------------------

 ---------
 O2_O2_265
 ---------
 Symbolic Z-matrix:
 Charge = -1 Multiplicity = 4

                         Standard orientation:
 ---------------------------------------------------------------------
 Center     Atomic      Atomic             Coordinates (Angstroms)
 Number     Number       Type             X           Y           Z
 ---------------------------------------------------------------------
      1          8           0        0.000000    0.000000    2.668588
      2          8           0        0.000000    0.000000    4.020968
      3          8           0        0.000000    0.000000   -4.020968
      4          8           0        0.000000    0.000000   -2.668588
 ---------------------------------------------------------------------

 SCF Done:  E(ROHF) =  -299.196250652     A.U. after    7 cycles
 E2 =    -0.9853742679D+00 EUMP2 =    -0.30018162491948D+03
 CCSD(T)
 CCSD(T)= -0.30022443659D+03

 Unable to determine electronic state:  an orbital has unidentified symmetry.
 Alpha  occ. eigenvalues --  -20.50275 -20.50275 -20.45067 -20.45067  -1.32961
 Alpha  occ. eigenvalues --   -1.32961  -0.95775  -0.95774  -0.53019  -0.53019
 Alpha  occ. eigenvalues --   -0.49494  -0.49475  -0.45604  -0.45599  -0.29704
 Alpha  occ. eigenvalues --   -0.29704  -0.28161  -0.28028
 Alpha virt. eigenvalues --    0.49180   0.49329   0.89152   0.89328   0.89654
 Alpha virt. eigenvalues --    0.89655   0.91724   0.91744   0.96644   0.97008
 Alpha virt. eigenvalues --    1.00738   1.00756   1.01203   1.01349   1.11550

 Mulliken charges and spin densities:
               1          2
     1  O   -0.333689   0.563095
     2  O   -0.166311   0.936905
     3  O   -0.166311   0.936905
     4  O   -0.333689   0.563095
 Sum of Mulliken charges =  -1.00000   3.00000

 Dipole moment (field-independent basis, Debye):
    X=             -0.0000    Y=              0.0000    Z=              0.0000  Tot=              0.0000
 Quadrupole moment (field-independent basis, Debye-Ang):
   XX=            -21.8675   YY=            -23.0056   ZZ=            -72.5258
   XY=              0.0000   XZ=              0.0000   YZ=              0.0000

 668225\CCSD=-300.1764434\CCSD(T)=-300.2244366\RMSD=5.745e-09\PG=D*H [C
 Normal termination of Gaussian 16 at Mon Jan 16 04:30:25 2023.
