 Gaussian 16, Revision A.03,
 Gaussian 16:  ES64L-G16RevA.03 25-Dec-2016

 ---------------------------------------------------------------
 #p ROCCSD(T)/cc-pVTZ Guess=Read SCF=(VeryTight,CDIIS,VShift=10)
 ---------------------------------------------------------------

 ---------
 O2_O2_124
 ---------
 Symbolic Z-matrix:
 Charge = -1 Multiplicity = 4

                         Standard orientation:
 ---------------------------------------------------------------------
 Center     Atomic      Atomic             Coordinates (Angstroms)
 Number     Number       Type             X           Y           Z
 ---------------------------------------------------------------------
      1          8           0        0.000000    0.000000    1.670408
      2          8           0        0.000000    0.000000    3.022788
      3          8           0        0.000000    0.000000   -3.022788
      4          8           0        0.000000    0.000000   -1.670408
 ---------------------------------------------------------------------

 SCF Done:  E(ROHF) =  -299.199686605     A.U. after    8 cycles
 E2 =    -0.9809367897D+00 EUMP2 =    -0.30018062339488D+03
 CCSD(T)
 CCSD(T)= -0.30022799495D+03

 Unable to determine electronic state:  an orbital has unidentified symmetry.
 Alpha  occ. eigenvalues --  -20.48093 -20.48093 -20.43534 -20.43534  -1.31131
 Alpha  occ. eigenvalues --   -1.31108  -0.94005  -0.93816  -0.51100  -0.51067
 Alpha  occ. eigenvalues --   -0.47647  -0.47615  -0.43992  -0.43304  -0.28030
 Alpha  occ. eigenvalues --   -0.27802  -0.26293  -0.26245
 Alpha virt. eigenvalues --    0.48246   0.54217   0.85995   0.91147   0.91369
 Alpha virt. eigenvalues --    0.91477   0.92931   0.93167   0.93809   1.00200
 Alpha virt. eigenvalues --    1.00925   1.05386   1.05744   1.12964   1.13295

 Mulliken charges and spin densities:
               1          2
     1  O   -0.310586   0.583836
     2  O   -0.189414   0.916164
     3  O   -0.189414   0.916164
     4  O   -0.310586   0.583836
 Sum of Mulliken charges =  -1.00000   3.00000

 Dipole moment (field-independent basis, Debye):
    X=             -0.0000    Y=             -0.0000    Z=              0.0000  Tot=              0.0000
 Quadrupole moment (field-independent basis, Debye-Ang):
   XX=            -21.8736   YY=            -23.0261   ZZ=            -48.7880
   XY=              0.0000   XZ=              0.0000   YZ=              0.0000

 00.1702587\CCSD=-300.1801015\CCSD(T)=-300.2279949\RMSD=6.307e-09\PG=D*
 Normal termination of Gaussian 16 at Sun Jan 15 04:41:01 2023.
