 Gaussian 16, Revision A.03,
 Gaussian 16:  ES64L-G16RevA.03 25-Dec-2016

 ---------------------------------------------------------------
 #p ROCCSD(T)/cc-pVTZ Guess=Read SCF=(VeryTight,CDIIS,VShift=10)
 ---------------------------------------------------------------

 ---------
 O2_O2_160
 ---------
 Symbolic Z-matrix:
 Charge = -1 Multiplicity = 4

                         Standard orientation:
 ---------------------------------------------------------------------
 Center     Atomic      Atomic             Coordinates (Angstroms)
 Number     Number       Type             X           Y           Z
 ---------------------------------------------------------------------
      1          8           0        0.000000    0.000000    1.925262
      2          8           0        0.000000    0.000000    3.277642
      3          8           0        0.000000    0.000000   -3.277642
      4          8           0        0.000000    0.000000   -1.925262
 ---------------------------------------------------------------------

 SCF Done:  E(ROHF) =  -299.197720205     A.U. after    8 cycles
 E2 =    -0.9825196653D+00 EUMP2 =    -0.30018023987001D+03
 CCSD(T)
 CCSD(T)= -0.30022592591D+03

 Unable to determine electronic state:  an orbital has unidentified symmetry.
 Alpha  occ. eigenvalues --  -20.48814 -20.48814 -20.43994 -20.43994  -1.31709
 Alpha  occ. eigenvalues --   -1.31703  -0.94536  -0.94485  -0.51711  -0.51702
 Alpha  occ. eigenvalues --   -0.48230  -0.48223  -0.44406  -0.44166  -0.28520
 Alpha  occ. eigenvalues --   -0.28449  -0.26900  -0.26820
 Alpha virt. eigenvalues --    0.48523   0.52397   0.86789   0.90748   0.90857
 Alpha virt. eigenvalues --    0.91275   0.92749   0.93051   0.93836   1.01183
 Alpha virt. eigenvalues --    1.01704   1.02951   1.03441   1.08314   1.12748

 Mulliken charges and spin densities:
               1          2
     1  O   -0.319008   0.576400
     2  O   -0.180992   0.923600
     3  O   -0.180992   0.923600
     4  O   -0.319008   0.576400
 Sum of Mulliken charges =  -1.00000   3.00000

 Dipole moment (field-independent basis, Debye):
    X=             -0.0000    Y=              0.0000    Z=             -0.0000  Tot=              0.0000
 Quadrupole moment (field-independent basis, Debye-Ang):
   XX=            -21.8714   YY=            -23.0127   ZZ=            -53.8921
   XY=              0.0000   XZ=              0.0000   YZ=              0.0000

 00.1682469\CCSD=-300.1780205\CCSD(T)=-300.2259259\RMSD=3.951e-09\PG=D*
 Normal termination of Gaussian 16 at Sun Jan 15 06:19:53 2023.
