 Gaussian 16, Revision A.03,
 Gaussian 16:  ES64L-G16RevA.03 25-Dec-2016

 ---------------------------------------------------------------
 #p ROCCSD(T)/cc-pVTZ Guess=Read SCF=(VeryTight,CDIIS,VShift=10)
 ---------------------------------------------------------------

 --------
 O2_O2_38
 --------
 Symbolic Z-matrix:
 Charge = -1 Multiplicity = 4

                         Standard orientation:
 ---------------------------------------------------------------------
 Center     Atomic      Atomic             Coordinates (Angstroms)
 Number     Number       Type             X           Y           Z
 ---------------------------------------------------------------------
      1          8           0        0.000000    0.000000    1.061589
      2          8           0        0.000000    0.000000    2.413969
      3          8           0        0.000000    0.000000   -2.413969
      4          8           0        0.000000    0.000000   -1.061589
 ---------------------------------------------------------------------

 SCF Done:  E(ROHF) =  -299.207061118     A.U. after   10 cycles
 E2 =    -0.9718304497D+00 EUMP2 =    -0.30017889156781D+03
 CCSD(T)
 CCSD(T)= -0.30023392773D+03

 Unable to determine electronic state:  an orbital has unidentified symmetry.
 Alpha  occ. eigenvalues --  -20.45173 -20.45172 -20.41896 -20.41895  -1.29496
 Alpha  occ. eigenvalues --   -1.28785  -0.94024  -0.90056  -0.49212  -0.48589
 Alpha  occ. eigenvalues --   -0.46089  -0.45150  -0.45056  -0.37350  -0.27432
 Alpha  occ. eigenvalues --   -0.25312  -0.24507  -0.23068
 Alpha virt. eigenvalues --    0.51573   0.60710   0.90367   0.92272   0.92277
 Alpha virt. eigenvalues --    0.92974   0.93512   0.96231   0.98389   1.00116
 Alpha virt. eigenvalues --    1.13724   1.13743   1.16620   1.17060   1.17126

 Mulliken charges and spin densities:
               1          2
     1  O   -0.258039   0.607693
     2  O   -0.241961   0.892307
     3  O   -0.241961   0.892307
     4  O   -0.258039   0.607693
 Sum of Mulliken charges =  -1.00000   3.00000

 Dipole moment (field-independent basis, Debye):
    X=             -0.0000    Y=              0.0000    Z=              0.0000  Tot=              0.0000
 Quadrupole moment (field-independent basis, Debye-Ang):
   XX=            -21.8579   YY=            -23.0942   ZZ=            -39.6679
   XY=              0.0000   XZ=              0.0000   YZ=              0.0000

 0.1764099\CCSD=-300.1861828\CCSD(T)=-300.2339277\RMSD=9.941e-09\PG=D*H
 Normal termination of Gaussian 16 at Sun Jan 15 00:48:57 2023.
