 Gaussian 16, Revision A.03,
 Gaussian 16:  ES64L-G16RevA.03 25-Dec-2016

 ---------------------------------------------------------------
 #p ROCCSD(T)/cc-pVTZ Guess=Read SCF=(VeryTight,CDIIS,VShift=10)
 ---------------------------------------------------------------

 ---------
 O2_O2_222
 ---------
 Symbolic Z-matrix:
 Charge = -1 Multiplicity = 4

                         Standard orientation:
 ---------------------------------------------------------------------
 Center     Atomic      Atomic             Coordinates (Angstroms)
 Number     Number       Type             X           Y           Z
 ---------------------------------------------------------------------
      1          8           0        0.000000    0.000000    2.364178
      2          8           0        0.000000    0.000000    3.716558
      3          8           0        0.000000    0.000000   -3.716558
      4          8           0        0.000000    0.000000   -2.364178
 ---------------------------------------------------------------------

 SCF Done:  E(ROHF) =  -299.196510812     A.U. after    7 cycles
 E2 =    -0.9844163646D+00 EUMP2 =    -0.30018092717664D+03
 CCSD(T)
 CCSD(T)= -0.30022468469D+03

 Unable to determine electronic state:  an orbital has unidentified symmetry.
 Alpha  occ. eigenvalues --  -20.49766 -20.49766 -20.44678 -20.44678  -1.32517
 Alpha  occ. eigenvalues --   -1.32517  -0.95332  -0.95327  -0.52557  -0.52556
 Alpha  occ. eigenvalues --   -0.49050  -0.49031  -0.45157  -0.45126  -0.29275
 Alpha  occ. eigenvalues --   -0.29268  -0.27724  -0.27594
 Alpha virt. eigenvalues --    0.49335   0.50114   0.89162   0.90057   0.90059
 Alpha virt. eigenvalues --    0.90068   0.92130   0.92172   0.96332   0.98599
 Alpha virt. eigenvalues --    1.01131   1.01281   1.01591   1.01859   1.11974

 Mulliken charges and spin densities:
               1          2
     1  O   -0.328874   0.567417
     2  O   -0.171126   0.932583
     3  O   -0.171126   0.932583
     4  O   -0.328874   0.567417
 Sum of Mulliken charges =  -1.00000   3.00000

 Dipole moment (field-independent basis, Debye):
    X=             -0.0000    Y=             -0.0000    Z=             -0.0000  Tot=              0.0000
 Quadrupole moment (field-independent basis, Debye-Ang):
   XX=            -21.8686   YY=            -23.0061   ZZ=            -64.2265
   XY=              0.0000   XZ=              0.0000   YZ=              0.0000

 670545\CCSD=-300.1767271\CCSD(T)=-300.2246847\RMSD=5.910e-09\PG=D*H [C
 Normal termination of Gaussian 16 at Mon Jan 16 03:38:24 2023.
