 Gaussian 16, Revision A.03,
 Gaussian 16:  ES64L-G16RevA.03 25-Dec-2016

 ---------------------------------------------------------------
 #p ROCCSD(T)/cc-pVTZ Guess=Read SCF=(VeryTight,CDIIS,VShift=10)
 ---------------------------------------------------------------

 --------
 O2_O2_28
 --------
 Symbolic Z-matrix:
 Charge = -1 Multiplicity = 4

                         Standard orientation:
 ---------------------------------------------------------------------
 Center     Atomic      Atomic             Coordinates (Angstroms)
 Number     Number       Type             X           Y           Z
 ---------------------------------------------------------------------
      1          8           0        0.000000    0.000000    0.990795
      2          8           0        0.000000    0.000000    2.343176
      3          8           0        0.000000    0.000000   -2.343176
      4          8           0        0.000000    0.000000   -0.990795
 ---------------------------------------------------------------------

 SCF Done:  E(ROHF) =  -299.202327598     A.U. after    9 cycles
 E2 =    -0.9697936848D+00 EUMP2 =    -0.30017212128308D+03
 CCSD(T)
 CCSD(T)= -0.30022856732D+03

 Unable to determine electronic state:  an orbital has unidentified symmetry.
 Alpha  occ. eigenvalues --  -20.44552 -20.44552 -20.41517 -20.41516  -1.29378
 Alpha  occ. eigenvalues --   -1.28293  -0.94682  -0.89039  -0.48986  -0.48097
 Alpha  occ. eigenvalues --   -0.46000  -0.45882  -0.44511  -0.35562  -0.27621
 Alpha  occ. eigenvalues --   -0.25365  -0.23689  -0.22328
 Alpha virt. eigenvalues --    0.51921   0.62121   0.90408   0.92033   0.92686
 Alpha virt. eigenvalues --    0.93509   0.93826   0.96590   0.99167   1.00762
 Alpha virt. eigenvalues --    1.13658   1.14225   1.18333   1.18381   1.21283

 Mulliken charges and spin densities:
               1          2
     1  O   -0.245400   0.608166
     2  O   -0.254600   0.891834
     3  O   -0.254600   0.891834
     4  O   -0.245400   0.608166
 Sum of Mulliken charges =  -1.00000   3.00000

 Dipole moment (field-independent basis, Debye):
    X=             -0.0000    Y=              0.0000    Z=             -0.0000  Tot=              0.0000
 Quadrupole moment (field-independent basis, Debye-Ang):
   XX=            -21.8370   YY=            -23.0871   ZZ=            -39.0461
   XY=              0.0000   XZ=              0.0000   YZ=              0.0000

 0.1710922\CCSD=-300.1807791\CCSD(T)=-300.2285673\RMSD=4.558e-09\PG=D*H
 Normal termination of Gaussian 16 at Sun Jan 15 00:23:32 2023.
