 Gaussian 16, Revision A.03,
 Gaussian 16:  ES64L-G16RevA.03 25-Dec-2016

 ---------------------------------------------------------------
 #p ROCCSD(T)/cc-pVTZ Guess=Read SCF=(VeryTight,CDIIS,VShift=10)
 ---------------------------------------------------------------

 ---------
 O2_O2_250
 ---------
 Symbolic Z-matrix:
 Charge = -1 Multiplicity = 4

                         Standard orientation:
 ---------------------------------------------------------------------
 Center     Atomic      Atomic             Coordinates (Angstroms)
 Number     Number       Type             X           Y           Z
 ---------------------------------------------------------------------
      1          8           0        0.000000    0.000000    2.562398
      2          8           0        0.000000    0.000000    3.914778
      3          8           0        0.000000    0.000000   -3.914778
      4          8           0        0.000000    0.000000   -2.562398
 ---------------------------------------------------------------------

 SCF Done:  E(ROHF) =  -299.196320011     A.U. after    7 cycles
 E2 =    -0.9850655263D+00 EUMP2 =    -0.30018138553686D+03
 CCSD(T)
 CCSD(T)= -0.30022450145D+03

 Unable to determine electronic state:  an orbital has unidentified symmetry.
 Alpha  occ. eigenvalues --  -20.50109 -20.50109 -20.44939 -20.44939  -1.32816
 Alpha  occ. eigenvalues --   -1.32816  -0.95630  -0.95628  -0.52868  -0.52868
 Alpha  occ. eigenvalues --   -0.49349  -0.49330  -0.45456  -0.45446  -0.29563
 Alpha  occ. eigenvalues --   -0.29561  -0.28018  -0.27886
 Alpha virt. eigenvalues --    0.49271   0.49549   0.89212   0.89538   0.89788
 Alpha virt. eigenvalues --    0.89790   0.91859   0.91883   0.96656   0.97374
 Alpha virt. eigenvalues --    1.00877   1.00917   1.01340   1.01505   1.11689

 Mulliken charges and spin densities:
               1          2
     1  O   -0.332157   0.564468
     2  O   -0.167843   0.935532
     3  O   -0.167843   0.935532
     4  O   -0.332157   0.564468
 Sum of Mulliken charges =  -1.00000   3.00000

 Dipole moment (field-independent basis, Debye):
    X=             -0.0000    Y=              0.0000    Z=              0.0000  Tot=              0.0000
 Quadrupole moment (field-independent basis, Debye-Ang):
   XX=            -21.8678   YY=            -23.0057   ZZ=            -69.5253
   XY=              0.0000   XZ=              0.0000   YZ=              0.0000

 22\CCSD=-300.1765199\CCSD(T)=-300.2245014\RMSD=5.448e-09\PG=D*H [C*(O1
 Normal termination of Gaussian 16 at Mon Jan 16 04:13:07 2023.
