 Gaussian 16, Revision A.03,
 Gaussian 16:  ES64L-G16RevA.03 25-Dec-2016

 ---------------------------------------------------------------
 #p ROCCSD(T)/cc-pVTZ Guess=Read SCF=(VeryTight,CDIIS,VShift=10)
 ---------------------------------------------------------------

 --------
 O2_O2_83
 --------
 Symbolic Z-matrix:
 Charge = -1 Multiplicity = 4

                         Standard orientation:
 ---------------------------------------------------------------------
 Center     Atomic      Atomic             Coordinates (Angstroms)
 Number     Number       Type             X           Y           Z
 ---------------------------------------------------------------------
      1          8           0        0.000000    0.000000    1.380157
      2          8           0        0.000000    0.000000    2.732537
      3          8           0        0.000000    0.000000   -2.732537
      4          8           0        0.000000    0.000000   -1.380157
 ---------------------------------------------------------------------

 SCF Done:  E(ROHF) =  -299.204338992     A.U. after   11 cycles
 E2 =    -0.9780794921D+00 EUMP2 =    -0.30018241848387D+03
 CCSD(T)
 CCSD(T)= -0.30023260096D+03

 Unable to determine electronic state:  an orbital has unidentified symmetry.
 Alpha  occ. eigenvalues --  -20.47018 -20.47018 -20.42932 -20.42932  -1.30363
 Alpha  occ. eigenvalues --   -1.30250  -0.93485  -0.92672  -0.50271  -0.50137
 Alpha  occ. eigenvalues --   -0.46891  -0.46690  -0.43842  -0.41633  -0.27517
 Alpha  occ. eigenvalues --   -0.26732  -0.25682  -0.25175
 Alpha virt. eigenvalues --    0.49613   0.56635   0.90790   0.91464   0.92348
 Alpha virt. eigenvalues --    0.92597   0.92843   0.93894   0.94881   0.98254
 Alpha virt. eigenvalues --    0.99604   1.10413   1.10594   1.13500   1.14017

 Mulliken charges and spin densities:
               1          2
     1  O   -0.294726   0.595215
     2  O   -0.205274   0.904785
     3  O   -0.205274   0.904785
     4  O   -0.294726   0.595215
 Sum of Mulliken charges =  -1.00000   3.00000

 Dipole moment (field-independent basis, Debye):
    X=             -0.0000    Y=              0.0000    Z=             -0.0000  Tot=              0.0000
 Quadrupole moment (field-independent basis, Debye-Ang):
   XX=            -21.8759   YY=            -23.0576   ZZ=            -43.8141
   XY=              0.0000   XZ=              0.0000   YZ=              0.0000

 1748621\CCSD=-300.1847478\CCSD(T)=-300.232601\RMSD=4.221e-09\PG=D*H [C
 Normal termination of Gaussian 16 at Sun Jan 15 02:50:25 2023.
