 Gaussian 16, Revision A.03,
 Gaussian 16:  ES64L-G16RevA.03 25-Dec-2016

 ---------------------------------------------------------------
 #p ROCCSD(T)/cc-pVTZ Guess=Read SCF=(VeryTight,CDIIS,VShift=10)
 ---------------------------------------------------------------

 ---------
 O2_O2_117
 ---------
 Symbolic Z-matrix:
 Charge = -1 Multiplicity = 4

                         Standard orientation:
 ---------------------------------------------------------------------
 Center     Atomic      Atomic             Coordinates (Angstroms)
 Number     Number       Type             X           Y           Z
 ---------------------------------------------------------------------
      1          8           0        0.000000    0.000000    1.620853
      2          8           0        0.000000    0.000000    2.973233
      3          8           0        0.000000    0.000000   -2.973233
      4          8           0        0.000000    0.000000   -1.620853
 ---------------------------------------------------------------------

 SCF Done:  E(ROHF) =  -299.200267987     A.U. after    8 cycles
 E2 =    -0.9805527633D+00 EUMP2 =    -0.30018082075061D+03
 CCSD(T)
 CCSD(T)= -0.30022859483D+03

 Unable to determine electronic state:  an orbital has unidentified symmetry.
 Alpha  occ. eigenvalues --  -20.47932 -20.47932 -20.43439 -20.43439  -1.31008
 Alpha  occ. eigenvalues --   -1.30979  -0.93902  -0.93660  -0.50969  -0.50927
 Alpha  occ. eigenvalues --   -0.47525  -0.47478  -0.43929  -0.43088  -0.27935
 Alpha  occ. eigenvalues --   -0.27652  -0.26187  -0.26093
 Alpha virt. eigenvalues --    0.48360   0.54595   0.86500   0.91215   0.91314
 Alpha virt. eigenvalues --    0.91614   0.92922   0.93126   0.93980   0.99890
 Alpha virt. eigenvalues --    1.00689   1.06070   1.06397   1.13076   1.13411

 Mulliken charges and spin densities:
               1          2
     1  O   -0.308522   0.585541
     2  O   -0.191478   0.914459
     3  O   -0.191478   0.914459
     4  O   -0.308522   0.585541
 Sum of Mulliken charges =  -1.00000   3.00000

 Dipole moment (field-independent basis, Debye):
    X=             -0.0000    Y=              0.0000    Z=             -0.0000  Tot=              0.0000
 Quadrupole moment (field-independent basis, Debye-Ang):
   XX=            -21.8741   YY=            -23.0302   ZZ=            -47.8740
   XY=              0.0000   XZ=              0.0000   YZ=              0.0000

 1708491\CCSD=-300.180704\CCSD(T)=-300.2285948\RMSD=7.209e-09\PG=D*H [C
 Normal termination of Gaussian 16 at Sun Jan 15 04:22:59 2023.
