 Gaussian 16, Revision A.03,
 Gaussian 16:  ES64L-G16RevA.03 25-Dec-2016

 ---------------------------------------------------------------
 #p ROCCSD(T)/cc-pVTZ Guess=Read SCF=(VeryTight,CDIIS,VShift=10)
 ---------------------------------------------------------------

 ---------
 O2_O2_273
 ---------
 Symbolic Z-matrix:
 Charge = -1 Multiplicity = 4

                         Standard orientation:
 ---------------------------------------------------------------------
 Center     Atomic      Atomic             Coordinates (Angstroms)
 Number     Number       Type             X           Y           Z
 ---------------------------------------------------------------------
      1          8           0        0.000000    0.000000    2.725222
      2          8           0        0.000000    0.000000    4.077602
      3          8           0        0.000000    0.000000   -4.077602
      4          8           0        0.000000    0.000000   -2.725222
 ---------------------------------------------------------------------

 SCF Done:  E(ROHF) =  -299.196219583     A.U. after    7 cycles
 E2 =    -0.9855293718D+00 EUMP2 =    -0.30018174895472D+03
 CCSD(T)
 CCSD(T)= -0.30022440780D+03

 Unable to determine electronic state:  an orbital has unidentified symmetry.
 Alpha  occ. eigenvalues --  -20.50359 -20.50359 -20.45133 -20.45133  -1.33035
 Alpha  occ. eigenvalues --   -1.33035  -0.95849  -0.95848  -0.53096  -0.53095
 Alpha  occ. eigenvalues --   -0.49568  -0.49549  -0.45679  -0.45676  -0.29776
 Alpha  occ. eigenvalues --   -0.29776  -0.28233  -0.28100
 Alpha virt. eigenvalues --    0.49124   0.49228   0.89107   0.89232   0.89586
 Alpha virt. eigenvalues --    0.89587   0.91655   0.91674   0.96609   0.96857
 Alpha virt. eigenvalues --    1.00665   1.00677   1.01132   1.01271   1.11479

 Mulliken charges and spin densities:
               1          2
     1  O   -0.334448   0.562413
     2  O   -0.165552   0.937587
     3  O   -0.165552   0.937587
     4  O   -0.334448   0.562413
 Sum of Mulliken charges =  -1.00000   3.00000

 Dipole moment (field-independent basis, Debye):
    X=             -0.0000    Y=             -0.0000    Z=              0.0000  Tot=              0.0000
 Quadrupole moment (field-independent basis, Debye-Ang):
   XX=            -21.8674   YY=            -23.0057   ZZ=            -74.1723
   XY=              0.0000   XZ=              0.0000   YZ=              0.0000

 7965\CCSD=-300.1764088\CCSD(T)=-300.2244078\RMSD=5.801e-09\PG=D*H [C*(
 Normal termination of Gaussian 16 at Mon Jan 16 04:39:44 2023.
