 Gaussian 16, Revision A.03,
 Gaussian 16:  ES64L-G16RevA.03 25-Dec-2016

 ---------------------------------------------------------------
 #p ROCCSD(T)/cc-pVTZ Guess=Read SCF=(VeryTight,CDIIS,VShift=10)
 ---------------------------------------------------------------

 ---------
 O2_O2_296
 ---------
 Symbolic Z-matrix:
 Charge = -1 Multiplicity = 4

                         Standard orientation:
 ---------------------------------------------------------------------
 Center     Atomic      Atomic             Coordinates (Angstroms)
 Number     Number       Type             X           Y           Z
 ---------------------------------------------------------------------
      1          8           0        0.000000    0.000000    2.888046
      2          8           0        0.000000    0.000000    4.240426
      3          8           0        0.000000    0.000000   -4.240426
      4          8           0        0.000000    0.000000   -2.888046
 ---------------------------------------------------------------------

 SCF Done:  E(ROHF) =  -299.196146561     A.U. after    7 cycles
 E2 =    -0.9859426590D+00 EUMP2 =    -0.30018208921963D+03
 CCSD(T)
 CCSD(T)= -0.30022434176D+03

 Unable to determine electronic state:  an orbital has unidentified symmetry.
 Alpha  occ. eigenvalues --  -20.50583 -20.50583 -20.45309 -20.45309  -1.33234
 Alpha  occ. eigenvalues --   -1.33234  -0.96047  -0.96047  -0.53302  -0.53302
 Alpha  occ. eigenvalues --   -0.49766  -0.49748  -0.45883  -0.45881  -0.29970
 Alpha  occ. eigenvalues --   -0.29970  -0.28428  -0.28295
 Alpha virt. eigenvalues --    0.48947   0.48982   0.88958   0.89001   0.89402
 Alpha virt. eigenvalues --    0.89402   0.91468   0.91485   0.96448   0.96526
 Alpha virt. eigenvalues --    1.00464   1.00468   1.00937   1.01067   1.11288

 Mulliken charges and spin densities:
               1          2
     1  O   -0.336433   0.560627
     2  O   -0.163567   0.939373
     3  O   -0.163567   0.939373
     4  O   -0.336433   0.560627
 Sum of Mulliken charges =  -1.00000   3.00000

 Dipole moment (field-independent basis, Debye):
    X=             -0.0000    Y=             -0.0000    Z=             -0.0000  Tot=              0.0000
 Quadrupole moment (field-independent basis, Debye-Ang):
   XX=            -21.8671   YY=            -23.0057   ZZ=            -79.0842
   XY=              0.0000   XZ=              0.0000   YZ=              0.0000

 667378\CCSD=-300.1763272\CCSD(T)=-300.2243418\RMSD=5.442e-09\PG=D*H [C
 Normal termination of Gaussian 16 at Mon Jan 16 05:08:40 2023.
