 Gaussian 16, Revision A.03,
 Gaussian 16:  ES64L-G16RevA.03 25-Dec-2016

 ---------------------------------------------------------------
 #p ROCCSD(T)/cc-pVTZ Guess=Read SCF=(VeryTight,CDIIS,VShift=10)
 ---------------------------------------------------------------

 --------
 O2_O2_47
 --------
 Symbolic Z-matrix:
 Charge = -1 Multiplicity = 4

                         Standard orientation:
 ---------------------------------------------------------------------
 Center     Atomic      Atomic             Coordinates (Angstroms)
 Number     Number       Type             X           Y           Z
 ---------------------------------------------------------------------
      1          8           0        0.000000    0.000000    1.125302
      2          8           0        0.000000    0.000000    2.477682
      3          8           0        0.000000    0.000000   -2.477682
      4          8           0        0.000000    0.000000   -1.125302
 ---------------------------------------------------------------------

 SCF Done:  E(ROHF) =  -299.208295620     A.U. after   10 cycles
 E2 =    -0.9734640283D+00 EUMP2 =    -0.30018175964842D+03
 CCSD(T)
 CCSD(T)= -0.30023562876D+03

 Unable to determine electronic state:  an orbital has unidentified symmetry.
 Alpha  occ. eigenvalues --  -20.45641 -20.45640 -20.42175 -20.42174  -1.29648
 Alpha  occ. eigenvalues --   -1.29158  -0.93682  -0.90791  -0.49428  -0.48971
 Alpha  occ. eigenvalues --   -0.46220  -0.45472  -0.44662  -0.38601  -0.27357
 Alpha  occ. eigenvalues --   -0.25324  -0.25111  -0.23624
 Alpha virt. eigenvalues --    0.51221   0.59661   0.90385   0.91970   0.92493
 Alpha virt. eigenvalues --    0.92640   0.93254   0.95936   0.97963   0.99735
 Alpha virt. eigenvalues --    1.10400   1.13732   1.14860   1.15821   1.15903

 Mulliken charges and spin densities:
               1          2
     1  O   -0.267924   0.606043
     2  O   -0.232076   0.893957
     3  O   -0.232076   0.893957
     4  O   -0.267924   0.606043
 Sum of Mulliken charges =  -1.00000   3.00000

 Dipole moment (field-independent basis, Debye):
    X=             -0.0000    Y=              0.0000    Z=             -0.0000  Tot=              0.0000
 Quadrupole moment (field-independent basis, Debye-Ang):
   XX=            -21.8678   YY=            -23.0920   ZZ=            -40.3438
   XY=              0.0000   XZ=              0.0000   YZ=              0.0000

 0.178057\CCSD=-300.1878768\CCSD(T)=-300.2356288\RMSD=5.353e-09\PG=D*H
 Normal termination of Gaussian 16 at Sun Jan 15 01:14:17 2023.
