 Gaussian 16, Revision A.03,
 Gaussian 16:  ES64L-G16RevA.03 25-Dec-2016

 ---------------------------------------------------------------
 #p ROCCSD(T)/cc-pVTZ Guess=Read SCF=(VeryTight,CDIIS,VShift=10)
 ---------------------------------------------------------------

 ---------
 O2_O2_114
 ---------
 Symbolic Z-matrix:
 Charge = -1 Multiplicity = 4

                         Standard orientation:
 ---------------------------------------------------------------------
 Center     Atomic      Atomic             Coordinates (Angstroms)
 Number     Number       Type             X           Y           Z
 ---------------------------------------------------------------------
      1          8           0        0.000000    0.000000    1.599615
      2          8           0        0.000000    0.000000    2.951995
      3          8           0        0.000000    0.000000   -2.951995
      4          8           0        0.000000    0.000000   -1.599615
 ---------------------------------------------------------------------

 SCF Done:  E(ROHF) =  -299.200542330     A.U. after    8 cycles
 E2 =    -0.9803778420D+00 EUMP2 =    -0.30018092017174D+03
 CCSD(T)
 CCSD(T)= -0.30022887555D+03

 Unable to determine electronic state:  an orbital has unidentified symmetry.
 Alpha  occ. eigenvalues --  -20.47861 -20.47861 -20.43397 -20.43397  -1.30954
 Alpha  occ. eigenvalues --   -1.30921  -0.93858  -0.93589  -0.50912  -0.50865
 Alpha  occ. eigenvalues --   -0.47471  -0.47417  -0.43905  -0.42989  -0.27894
 Alpha  occ. eigenvalues --   -0.27584  -0.26141  -0.26025
 Alpha virt. eigenvalues --    0.48428   0.54760   0.86809   0.91242   0.91283
 Alpha virt. eigenvalues --    0.91674   0.92912   0.93114   0.94055   0.99749
 Alpha virt. eigenvalues --    1.00583   1.06387   1.06700   1.13120   1.13461

 Mulliken charges and spin densities:
               1          2
     1  O   -0.307575   0.586301
     2  O   -0.192425   0.913699
     3  O   -0.192425   0.913699
     4  O   -0.307575   0.586301
 Sum of Mulliken charges =  -1.00000   3.00000

 Dipole moment (field-independent basis, Debye):
    X=             -0.0000    Y=              0.0000    Z=             -0.0000  Tot=              0.0000
 Quadrupole moment (field-independent basis, Debye-Ang):
   XX=            -21.8743   YY=            -23.0321   ZZ=            -47.4902
   XY=              0.0000   XZ=              0.0000   YZ=              0.0000

 00.1711265\CCSD=-300.1809861\CCSD(T)=-300.2288756\RMSD=7.660e-09\PG=D*
 Normal termination of Gaussian 16 at Sun Jan 15 04:15:23 2023.
