 Gaussian 16, Revision A.03,
 Gaussian 16:  ES64L-G16RevA.03 25-Dec-2016

 ---------------------------------------------------------------
 #p ROCCSD(T)/cc-pVTZ Guess=Read SCF=(VeryTight,CDIIS,VShift=10)
 ---------------------------------------------------------------

 ---------
 O2_O2_219
 ---------
 Symbolic Z-matrix:
 Charge = -1 Multiplicity = 4

                         Standard orientation:
 ---------------------------------------------------------------------
 Center     Atomic      Atomic             Coordinates (Angstroms)
 Number     Number       Type             X           Y           Z
 ---------------------------------------------------------------------
      1          8           0        0.000000    0.000000    2.342940
      2          8           0        0.000000    0.000000    3.695320
      3          8           0        0.000000    0.000000   -3.695320
      4          8           0        0.000000    0.000000   -2.342940
 ---------------------------------------------------------------------

 SCF Done:  E(ROHF) =  -299.196538361     A.U. after    7 cycles
 E2 =    -0.9843403757D+00 EUMP2 =    -0.30018087873653D+03
 CCSD(T)
 CCSD(T)= -0.30022471158D+03

 Unable to determine electronic state:  an orbital has unidentified symmetry.
 Alpha  occ. eigenvalues --  -20.49727 -20.49727 -20.44648 -20.44648  -1.32483
 Alpha  occ. eigenvalues --   -1.32482  -0.95298  -0.95292  -0.52521  -0.52520
 Alpha  occ. eigenvalues --   -0.49015  -0.48997  -0.45123  -0.45089  -0.29242
 Alpha  occ. eigenvalues --   -0.29234  -0.27690  -0.27561
 Alpha virt. eigenvalues --    0.49330   0.50190   0.89135   0.90090   0.90100
 Alpha virt. eigenvalues --    0.90122   0.92161   0.92206   0.96259   0.98797
 Alpha virt. eigenvalues --    1.01155   1.01328   1.01615   1.01903   1.12006

 Mulliken charges and spin densities:
               1          2
     1  O   -0.328486   0.567767
     2  O   -0.171514   0.932233
     3  O   -0.171514   0.932233
     4  O   -0.328486   0.567767
 Sum of Mulliken charges =  -1.00000   3.00000

 Dipole moment (field-independent basis, Debye):
    X=             -0.0000    Y=              0.0000    Z=              0.0000  Tot=              0.0000
 Quadrupole moment (field-independent basis, Debye-Ang):
   XX=            -21.8687   YY=            -23.0062   ZZ=            -63.6821
   XY=              0.0000   XZ=              0.0000   YZ=              0.0000

 .1670801\CCSD=-300.1767567\CCSD(T)=-300.2247116\RMSD=6.202e-09\PG=D*H
 Normal termination of Gaussian 16 at Sun Jan 15 09:00:06 2023.
