 Gaussian 16, Revision A.03,
 Gaussian 16:  ES64L-G16RevA.03 25-Dec-2016

 ---------------------------------------------------------------
 #p ROCCSD(T)/cc-pVTZ Guess=Read SCF=(VeryTight,CDIIS,VShift=10)
 ---------------------------------------------------------------

 --------
 O2_O2_55
 --------
 Symbolic Z-matrix:
 Charge = -1 Multiplicity = 4

                         Standard orientation:
 ---------------------------------------------------------------------
 Center     Atomic      Atomic             Coordinates (Angstroms)
 Number     Number       Type             X           Y           Z
 ---------------------------------------------------------------------
      1          8           0        0.000000    0.000000    1.181937
      2          8           0        0.000000    0.000000    2.534317
      3          8           0        0.000000    0.000000   -2.534317
      4          8           0        0.000000    0.000000   -1.181937
 ---------------------------------------------------------------------

 SCF Done:  E(ROHF) =  -299.208100795     A.U. after   10 cycles
 E2 =    -0.9747436240D+00 EUMP2 =    -0.30018284441860D+03
 CCSD(T)
 CCSD(T)= -0.30023576395D+03

 Unable to determine electronic state:  an orbital has unidentified symmetry.
 Alpha  occ. eigenvalues --  -20.46004 -20.46003 -20.42383 -20.42382  -1.29799
 Alpha  occ. eigenvalues --   -1.29447  -0.93514  -0.91333  -0.49621  -0.49274
 Alpha  occ. eigenvalues --   -0.46358  -0.45796  -0.44343  -0.39500  -0.27342
 Alpha  occ. eigenvalues --   -0.25564  -0.25369  -0.24048
 Alpha virt. eigenvalues --    0.50888   0.58856   0.90429   0.91774   0.92475
 Alpha virt. eigenvalues --    0.92661   0.93038   0.95689   0.97779   0.99529
 Alpha virt. eigenvalues --    1.06167   1.13711   1.14574   1.14658   1.14756

 Mulliken charges and spin densities:
               1          2
     1  O   -0.275547   0.603979
     2  O   -0.224453   0.896021
     3  O   -0.224453   0.896021
     4  O   -0.275547   0.603979
 Sum of Mulliken charges =  -1.00000   3.00000

 Dipole moment (field-independent basis, Debye):
    X=             -0.0000    Y=              0.0000    Z=              0.0000  Tot=              0.0000
 Quadrupole moment (field-independent basis, Debye-Ang):
   XX=            -21.8724   YY=            -23.0861   ZZ=            -41.0204
   XY=              0.0000   XZ=              0.0000   YZ=              0.0000

 0.1781429\CCSD=-300.1879904\CCSD(T)=-300.2357639\RMSD=7.570e-09\PG=D*H
 Normal termination of Gaussian 16 at Sun Jan 15 01:34:43 2023.
