 Gaussian 16, Revision A.03,
 Gaussian 16:  ES64L-G16RevA.03 25-Dec-2016

 ---------------------------------------------------------------
 #p ROCCSD(T)/cc-pVTZ Guess=Read SCF=(VeryTight,CDIIS,VShift=10)
 ---------------------------------------------------------------

 -------
 O2_O2_1
 -------
 Symbolic Z-matrix:
 Charge = -1 Multiplicity = 4

                         Standard orientation:
 ---------------------------------------------------------------------
 Center     Atomic      Atomic             Coordinates (Angstroms)
 Number     Number       Type             X           Y           Z
 ---------------------------------------------------------------------
      1          8           0        0.000000    0.000000    0.799655
      2          8           0        0.000000    0.000000    2.152035
      3          8           0        0.000000    0.000000   -2.152035
      4          8           0        0.000000    0.000000   -0.799655
 ---------------------------------------------------------------------

 SCF Done:  E(ROHF) =  -299.141933225     A.U. after   10 cycles
 E2 =    -0.9651975496D+00 EUMP2 =    -0.30010713077468D+03
 CCSD(T)
 CCSD(T)= -0.30016700808D+03

 Unable to determine electronic state:  an orbital has unidentified symmetry.
 Alpha  occ. eigenvalues --  -20.41932 -20.41932 -20.40206 -20.40205  -1.30067
 Alpha  occ. eigenvalues --   -1.26355  -0.99236  -0.84806  -0.48941  -0.48793
 Alpha  occ. eigenvalues --   -0.46730  -0.46225  -0.42394  -0.29164  -0.27171
 Alpha  occ. eigenvalues --   -0.26029  -0.20374  -0.19400
 Alpha virt. eigenvalues --    0.52081   0.68160   0.91096   0.91701   0.93713
 Alpha virt. eigenvalues --    0.94921   0.94974   0.97861   1.02705   1.03864
 Alpha virt. eigenvalues --    1.12932   1.13308   1.21071   1.21083   1.30377

 Mulliken charges and spin densities:
               1          2
     1  O   -0.193411   0.596469
     2  O   -0.306589   0.903531
     3  O   -0.306589   0.903531
     4  O   -0.193411   0.596469
 Sum of Mulliken charges =  -1.00000   3.00000

 Dipole moment (field-independent basis, Debye):
    X=             -0.0000    Y=              0.0000    Z=             -0.0000  Tot=              0.0000
 Quadrupole moment (field-independent basis, Debye-Ang):
   XX=            -21.6712   YY=            -22.9594   ZZ=            -38.4528
   XY=              0.0000   XZ=              0.0000   YZ=              0.0000

 92375\CCSD=-300.1180737\CCSD(T)=-300.1670081\RMSD=8.192e-09\PG=D*H [C*
 Normal termination of Gaussian 16 at Sat Jan 14 23:09:49 2023.
