 Gaussian 16, Revision A.03,
 Gaussian 16:  ES64L-G16RevA.03 25-Dec-2016

 ---------------------------------------------------------------
 #p ROCCSD(T)/cc-pVTZ Guess=Read SCF=(VeryTight,CDIIS,VShift=10)
 ---------------------------------------------------------------

 ---------
 O2_O2_282
 ---------
 Symbolic Z-matrix:
 Charge = -1 Multiplicity = 4

                         Standard orientation:
 ---------------------------------------------------------------------
 Center     Atomic      Atomic             Coordinates (Angstroms)
 Number     Number       Type             X           Y           Z
 ---------------------------------------------------------------------
      1          8           0        0.000000    0.000000    2.788936
      2          8           0        0.000000    0.000000    4.141316
      3          8           0        0.000000    0.000000   -4.141316
      4          8           0        0.000000    0.000000   -2.788936
 ---------------------------------------------------------------------

 SCF Done:  E(ROHF) =  -299.196188463     A.U. after    7 cycles
 E2 =    -0.9856966018D+00 EUMP2 =    -0.30018188506434D+03
 CCSD(T)
 CCSD(T)= -0.30022437938D+03

 Unable to determine electronic state:  an orbital has unidentified symmetry.
 Alpha  occ. eigenvalues --  -20.50449 -20.50449 -20.45204 -20.45204  -1.33115
 Alpha  occ. eigenvalues --   -1.33115  -0.95929  -0.95928  -0.53179  -0.53179
 Alpha  occ. eigenvalues --   -0.49648  -0.49629  -0.45761  -0.45759  -0.29854
 Alpha  occ. eigenvalues --   -0.29854  -0.28311  -0.28179
 Alpha virt. eigenvalues --    0.49056   0.49125   0.89052   0.89135   0.89512
 Alpha virt. eigenvalues --    0.89513   0.91580   0.91598   0.96553   0.96713
 Alpha virt. eigenvalues --    1.00585   1.00592   1.01054   1.01188   1.11402

 Mulliken charges and spin densities:
               1          2
     1  O   -0.335258   0.561685
     2  O   -0.164742   0.938315
     3  O   -0.164742   0.938315
     4  O   -0.335258   0.561685
 Sum of Mulliken charges =  -1.00000   3.00000

 Dipole moment (field-independent basis, Debye):
    X=             -0.0000    Y=              0.0000    Z=             -0.0000  Tot=              0.0000
 Quadrupole moment (field-independent basis, Debye-Ang):
   XX=            -21.8673   YY=            -23.0057   ZZ=            -76.0629
   XY=              0.0000   XZ=              0.0000   YZ=              0.0000

 66771\CCSD=-300.1763741\CCSD(T)=-300.2243794\RMSD=5.742e-09\PG=D*H [C*
 Normal termination of Gaussian 16 at Mon Jan 16 04:50:26 2023.
