 Gaussian 16, Revision A.03,
 Gaussian 16:  ES64L-G16RevA.03 25-Dec-2016

 ---------------------------------------------------------------
 #p ROCCSD(T)/cc-pVTZ Guess=Read SCF=(VeryTight,CDIIS,VShift=10)
 ---------------------------------------------------------------

 --------
 O2_O2_78
 --------
 Symbolic Z-matrix:
 Charge = -1 Multiplicity = 4

                         Standard orientation:
 ---------------------------------------------------------------------
 Center     Atomic      Atomic             Coordinates (Angstroms)
 Number     Number       Type             X           Y           Z
 ---------------------------------------------------------------------
      1          8           0        0.000000    0.000000    1.344760
      2          8           0        0.000000    0.000000    2.697140
      3          8           0        0.000000    0.000000   -2.697140
      4          8           0        0.000000    0.000000   -1.344760
 ---------------------------------------------------------------------

 SCF Done:  E(ROHF) =  -299.205089854     A.U. after   11 cycles
 E2 =    -0.9775951660D+00 EUMP2 =    -0.30018268502041D+03
 CCSD(T)
 CCSD(T)= -0.30023329736D+03

 Unable to determine electronic state:  an orbital has unidentified symmetry.
 Alpha  occ. eigenvalues --  -20.46859 -20.46859 -20.42848 -20.42847  -1.30263
 Alpha  occ. eigenvalues --   -1.30125  -0.93450  -0.92480  -0.50159  -0.50000
 Alpha  occ. eigenvalues --   -0.46795  -0.46551  -0.43878  -0.41336  -0.27468
 Alpha  occ. eigenvalues --   -0.26560  -0.25615  -0.25005
 Alpha virt. eigenvalues --    0.49846   0.56982   0.90705   0.91496   0.92465
 Alpha virt. eigenvalues --    0.92531   0.92913   0.95020   0.95594   0.98070
 Alpha virt. eigenvalues --    0.99513   1.11161   1.11323   1.13549   1.14111

 Mulliken charges and spin densities:
               1          2
     1  O   -0.291977   0.596804
     2  O   -0.208023   0.903196
     3  O   -0.208023   0.903196
     4  O   -0.291977   0.596804
 Sum of Mulliken charges =  -1.00000   3.00000

 Dipole moment (field-independent basis, Debye):
    X=             -0.0000    Y=             -0.0000    Z=             -0.0000  Tot=              0.0000
 Quadrupole moment (field-independent basis, Debye-Ang):
   XX=            -21.8759   YY=            -23.0627   ZZ=            -43.2742
   XY=              0.0000   XZ=              0.0000   YZ=              0.0000

 55712\CCSD=-300.1854553\CCSD(T)=-300.2332974\RMSD=3.689e-09\PG=D*H [C*
 Normal termination of Gaussian 16 at Sun Jan 15 02:37:23 2023.
