 Gaussian 16, Revision A.03,
 Gaussian 16:  ES64L-G16RevA.03 25-Dec-2016

 ---------------------------------------------------------------
 #p ROCCSD(T)/cc-pVTZ Guess=Read SCF=(VeryTight,CDIIS,VShift=10)
 ---------------------------------------------------------------

 --------
 O2_O2_99
 --------
 Symbolic Z-matrix:
 Charge = -1 Multiplicity = 4

                         Standard orientation:
 ---------------------------------------------------------------------
 Center     Atomic      Atomic             Coordinates (Angstroms)
 Number     Number       Type             X           Y           Z
 ---------------------------------------------------------------------
      1          8           0        0.000000    0.000000    1.493425
      2          8           0        0.000000    0.000000    2.845806
      3          8           0        0.000000    0.000000   -2.845806
      4          8           0        0.000000    0.000000   -1.493425
 ---------------------------------------------------------------------

 SCF Done:  E(ROHF) =  -299.202161078     A.U. after   11 cycles
 E2 =    -0.9793937655D+00 EUMP2 =    -0.30018155484309D+03
 CCSD(T)
 CCSD(T)= -0.30023050118D+03

 Unable to determine electronic state:  an orbital has unidentified symmetry.
 Alpha  occ. eigenvalues --  -20.47480 -20.47480 -20.43182 -20.43182  -1.30676
 Alpha  occ. eigenvalues --   -1.30616  -0.93654  -0.93194  -0.50613  -0.50535
 Alpha  occ. eigenvalues --   -0.47197  -0.47090  -0.43825  -0.42419  -0.27700
 Alpha  occ. eigenvalues --   -0.27211  -0.25914  -0.25651
 Alpha virt. eigenvalues --    0.48915   0.55620   0.89255   0.91072   0.91362
 Alpha virt. eigenvalues --    0.91989   0.92801   0.93083   0.94444   0.98998
 Alpha virt. eigenvalues --    1.00054   1.08176   1.08422   1.13319   1.13724

 Mulliken charges and spin densities:
               1          2
     1  O   -0.302145   0.590380
     2  O   -0.197855   0.909620
     3  O   -0.197855   0.909620
     4  O   -0.302145   0.590380
 Sum of Mulliken charges =  -1.00000   3.00000

 Dipole moment (field-independent basis, Debye):
    X=             -0.0000    Y=             -0.0000    Z=              0.0000  Tot=              0.0000
 Quadrupole moment (field-independent basis, Debye-Ang):
   XX=            -21.8752   YY=            -23.0431   ZZ=            -45.6438
   XY=              0.0000   XZ=              0.0000   YZ=              0.0000

 0.1727448\CCSD=-300.1826233\CCSD(T)=-300.2305012\RMSD=5.246e-09\PG=D*H
 Normal termination of Gaussian 16 at Sun Jan 15 03:33:56 2023.
