 Gaussian 16, Revision A.03,
 Gaussian 16:  ES64L-G16RevA.03 25-Dec-2016

 ---------------------------------------------------------------
 #p ROCCSD(T)/cc-pVTZ Guess=Read SCF=(VeryTight,CDIIS,VShift=10)
 ---------------------------------------------------------------

 ---------
 O2_O2_245
 ---------
 Symbolic Z-matrix:
 Charge = -1 Multiplicity = 4

                         Standard orientation:
 ---------------------------------------------------------------------
 Center     Atomic      Atomic             Coordinates (Angstroms)
 Number     Number       Type             X           Y           Z
 ---------------------------------------------------------------------
      1          8           0        0.000000    0.000000    2.527002
      2          8           0        0.000000    0.000000    3.879382
      3          8           0        0.000000    0.000000   -3.879382
      4          8           0        0.000000    0.000000   -2.527002
 ---------------------------------------------------------------------

 SCF Done:  E(ROHF) =  -299.196347186     A.U. after    7 cycles
 E2 =    -0.9849569779D+00 EUMP2 =    -0.30018130416432D+03
 CCSD(T)
 CCSD(T)= -0.30022452713D+03

 Unable to determine electronic state:  an orbital has unidentified symmetry.
 Alpha  occ. eigenvalues --  -20.50051 -20.50051 -20.44894 -20.44894  -1.32765
 Alpha  occ. eigenvalues --   -1.32765  -0.95579  -0.95577  -0.52815  -0.52815
 Alpha  occ. eigenvalues --   -0.49298  -0.49279  -0.45405  -0.45393  -0.29514
 Alpha  occ. eigenvalues --   -0.29512  -0.27969  -0.27836
 Alpha virt. eigenvalues --    0.49295   0.49633   0.89222   0.89618   0.89834
 Alpha virt. eigenvalues --    0.89837   0.91906   0.91931   0.96638   0.97530
 Alpha virt. eigenvalues --    1.00924   1.00975   1.01386   1.01562   1.11738

 Mulliken charges and spin densities:
               1          2
     1  O   -0.331613   0.564956
     2  O   -0.168387   0.935044
     3  O   -0.168387   0.935044
     4  O   -0.331613   0.564956
 Sum of Mulliken charges =  -1.00000   3.00000

 Dipole moment (field-independent basis, Debye):
    X=             -0.0000    Y=             -0.0000    Z=             -0.0000  Tot=              0.0000
 Quadrupole moment (field-independent basis, Debye-Ang):
   XX=            -21.8679   YY=            -23.0057   ZZ=            -68.5502
   XY=              0.0000   XZ=              0.0000   YZ=              0.0000

 669062\CCSD=-300.1765496\CCSD(T)=-300.2245271\RMSD=5.349e-09\PG=D*H [C
 Normal termination of Gaussian 16 at Mon Jan 16 04:07:29 2023.
