 Gaussian 16, Revision A.03,
 Gaussian 16:  ES64L-G16RevA.03 25-Dec-2016

 ---------------------------------------------------------------
 #p ROCCSD(T)/cc-pVTZ Guess=Read SCF=(VeryTight,CDIIS,VShift=10)
 ---------------------------------------------------------------

 ---------
 O2_O2_292
 ---------
 Symbolic Z-matrix:
 Charge = -1 Multiplicity = 4

                         Standard orientation:
 ---------------------------------------------------------------------
 Center     Atomic      Atomic             Coordinates (Angstroms)
 Number     Number       Type             X           Y           Z
 ---------------------------------------------------------------------
      1          8           0        0.000000    0.000000    2.859729
      2          8           0        0.000000    0.000000    4.212109
      3          8           0        0.000000    0.000000   -4.212109
      4          8           0        0.000000    0.000000   -2.859729
 ---------------------------------------------------------------------

 SCF Done:  E(ROHF) =  -299.196157821     A.U. after    7 cycles
 E2 =    -0.9858740225D+00 EUMP2 =    -0.30018203184297D+03
 CCSD(T)
 CCSD(T)= -0.30022435179D+03

 Unable to determine electronic state:  an orbital has unidentified symmetry.
 Alpha  occ. eigenvalues --  -20.50546 -20.50546 -20.45280 -20.45280  -1.33201
 Alpha  occ. eigenvalues --   -1.33201  -0.96014  -0.96013  -0.53267  -0.53267
 Alpha  occ. eigenvalues --   -0.49733  -0.49715  -0.45849  -0.45847  -0.29937
 Alpha  occ. eigenvalues --   -0.29937  -0.28395  -0.28263
 Alpha virt. eigenvalues --    0.48978   0.49021   0.88985   0.89037   0.89433
 Alpha virt. eigenvalues --    0.89433   0.91499   0.91516   0.96480   0.96576
 Alpha virt. eigenvalues --    1.00498   1.00502   1.00970   1.01101   1.11320

 Mulliken charges and spin densities:
               1          2
     1  O   -0.336108   0.560921
     2  O   -0.163892   0.939079
     3  O   -0.163892   0.939079
     4  O   -0.336108   0.560921
 Sum of Mulliken charges =  -1.00000   3.00000

 Dipole moment (field-independent basis, Debye):
    X=             -0.0000    Y=              0.0000    Z=              0.0000  Tot=              0.0000
 Quadrupole moment (field-independent basis, Debye-Ang):
   XX=            -21.8671   YY=            -23.0057   ZZ=            -78.2110
   XY=              0.0000   XZ=              0.0000   YZ=              0.0000

 667466\CCSD=-300.1763398\CCSD(T)=-300.2243518\RMSD=5.548e-09\PG=D*H [C
 Normal termination of Gaussian 16 at Mon Jan 16 05:03:46 2023.
