 Gaussian 16, Revision A.03,
 Gaussian 16:  ES64L-G16RevA.03 25-Dec-2016

 ---------------------------------------------------------------
 #p ROCCSD(T)/cc-pVTZ Guess=Read SCF=(VeryTight,CDIIS,VShift=10)
 ---------------------------------------------------------------

 --------
 O2_O2_17
 --------
 Symbolic Z-matrix:
 Charge = -1 Multiplicity = 4

                         Standard orientation:
 ---------------------------------------------------------------------
 Center     Atomic      Atomic             Coordinates (Angstroms)
 Number     Number       Type             X           Y           Z
 ---------------------------------------------------------------------
      1          8           0        0.000000    0.000000    0.912923
      2          8           0        0.000000    0.000000    2.265304
      3          8           0        0.000000    0.000000   -2.265304
      4          8           0        0.000000    0.000000   -0.912923
 ---------------------------------------------------------------------

 SCF Done:  E(ROHF) =  -299.189470815     A.U. after   10 cycles
 E2 =    -0.9674344201D+00 EUMP2 =    -0.30015690523480D+03
 CCSD(T)
 CCSD(T)= -0.30021496868D+03

 Unable to determine electronic state:  an orbital has unidentified symmetry.
 Alpha  occ. eigenvalues --  -20.43695 -20.43695 -20.41009 -20.41007  -1.29379
 Alpha  occ. eigenvalues --   -1.27631  -0.95917  -0.87612  -0.48786  -0.47450
 Alpha  occ. eigenvalues --   -0.46941  -0.46038  -0.43782  -0.32920  -0.28018
 Alpha  occ. eigenvalues --   -0.25533  -0.22561  -0.21325
 Alpha virt. eigenvalues --    0.52194   0.64096   0.90614   0.91753   0.93166
 Alpha virt. eigenvalues --    0.94188   0.94217   0.97041   1.00402   1.01789
 Alpha virt. eigenvalues --    1.13480   1.14092   1.19587   1.19614   1.25819

 Mulliken charges and spin densities:
               1          2
     1  O   -0.228645   0.606123
     2  O   -0.271355   0.893877
     3  O   -0.271355   0.893877
     4  O   -0.228645   0.606123
 Sum of Mulliken charges =  -1.00000   3.00000

 Dipole moment (field-independent basis, Debye):
    X=             -0.0000    Y=              0.0000    Z=             -0.0000  Tot=              0.0000
 Quadrupole moment (field-independent basis, Debye-Ang):
   XX=            -21.7948   YY=            -23.0600   ZZ=            -38.5670
   XY=              0.0000   XZ=              0.0000   YZ=              0.0000

 0.1574831\CCSD=-300.1669925\CCSD(T)=-300.2149687\RMSD=4.874e-09\PG=D*H
 Normal termination of Gaussian 16 at Sat Jan 14 23:52:41 2023.
