 Gaussian 16, Revision A.03,
 Gaussian 16:  ES64L-G16RevA.03 25-Dec-2016

 ---------------------------------------------------------------
 #p ROCCSD(T)/cc-pVTZ Guess=Read SCF=(VeryTight,CDIIS,VShift=10)
 ---------------------------------------------------------------

 ---------
 O2_O2_262
 ---------
 Symbolic Z-matrix:
 Charge = -1 Multiplicity = 4

                         Standard orientation:
 ---------------------------------------------------------------------
 Center     Atomic      Atomic             Coordinates (Angstroms)
 Number     Number       Type             X           Y           Z
 ---------------------------------------------------------------------
      1          8           0        0.000000    0.000000    2.647350
      2          8           0        0.000000    0.000000    3.999730
      3          8           0        0.000000    0.000000   -3.999730
      4          8           0        0.000000    0.000000   -2.647350
 ---------------------------------------------------------------------

 SCF Done:  E(ROHF) =  -299.196263262     A.U. after    7 cycles
 E2 =    -0.9853144487D+00 EUMP2 =    -0.30018157771042D+03
 CCSD(T)
 CCSD(T)= -0.30022444832D+03

 Unable to determine electronic state:  an orbital has unidentified symmetry.
 Alpha  occ. eigenvalues --  -20.50243 -20.50243 -20.45042 -20.45042  -1.32933
 Alpha  occ. eigenvalues --   -1.32933  -0.95747  -0.95745  -0.52990  -0.52989
 Alpha  occ. eigenvalues --   -0.49466  -0.49447  -0.45575  -0.45569  -0.29677
 Alpha  occ. eigenvalues --   -0.29676  -0.28133  -0.28000
 Alpha virt. eigenvalues --    0.49201   0.49369   0.89166   0.89367   0.89680
 Alpha virt. eigenvalues --    0.89682   0.91750   0.91771   0.96653   0.97071
 Alpha virt. eigenvalues --    1.00765   1.00787   1.01230   1.01379   1.11577

 Mulliken charges and spin densities:
               1          2
     1  O   -0.333394   0.563359
     2  O   -0.166606   0.936641
     3  O   -0.166606   0.936641
     4  O   -0.333394   0.563359
 Sum of Mulliken charges =  -1.00000   3.00000

 Dipole moment (field-independent basis, Debye):
    X=             -0.0000    Y=              0.0000    Z=              0.0000  Tot=              0.0000
 Quadrupole moment (field-independent basis, Debye-Ang):
   XX=            -21.8676   YY=            -23.0056   ZZ=            -71.9167
   XY=              0.0000   XZ=              0.0000   YZ=              0.0000

 668332\CCSD=-300.1764574\CCSD(T)=-300.2244483\RMSD=5.700e-09\PG=D*H [C
 Normal termination of Gaussian 16 at Mon Jan 16 04:27:02 2023.
