 Gaussian 16, Revision A.03,
 Gaussian 16:  ES64L-G16RevA.03 25-Dec-2016

 ---------------------------------------------------------------
 #p ROCCSD(T)/cc-pVTZ Guess=Read SCF=(VeryTight,CDIIS,VShift=10)
 ---------------------------------------------------------------

 ---------
 O2_O2_182
 ---------
 Symbolic Z-matrix:
 Charge = -1 Multiplicity = 4

                         Standard orientation:
 ---------------------------------------------------------------------
 Center     Atomic      Atomic             Coordinates (Angstroms)
 Number     Number       Type             X           Y           Z
 ---------------------------------------------------------------------
      1          8           0        0.000000    0.000000    2.081007
      2          8           0        0.000000    0.000000    3.433387
      3          8           0        0.000000    0.000000   -3.433387
      4          8           0        0.000000    0.000000   -2.081007
 ---------------------------------------------------------------------

 SCF Done:  E(ROHF) =  -299.197088333     A.U. after    8 cycles
 E2 =    -0.9832798966D+00 EUMP2 =    -0.30018036822943D+03
 CCSD(T)
 CCSD(T)= -0.30022526524D+03

 Unable to determine electronic state:  an orbital has unidentified symmetry.
 Alpha  occ. eigenvalues --  -20.49187 -20.49187 -20.44253 -20.44253  -1.32021
 Alpha  occ. eigenvalues --   -1.32019  -0.94840  -0.94817  -0.52038  -0.52034
 Alpha  occ. eigenvalues --   -0.48549  -0.48535  -0.44681  -0.44560  -0.28805
 Alpha  occ. eigenvalues --   -0.28772  -0.27226  -0.27115
 Alpha virt. eigenvalues --    0.48962   0.51424   0.88121   0.90494   0.90543
 Alpha virt. eigenvalues --    0.90936   0.92541   0.92688   0.94761   1.01326
 Alpha virt. eigenvalues --    1.01804   1.02128   1.02665   1.03211   1.12452

 Mulliken charges and spin densities:
               1          2
     1  O   -0.323008   0.572747
     2  O   -0.176992   0.927253
     3  O   -0.176992   0.927253
     4  O   -0.323008   0.572747
 Sum of Mulliken charges =  -1.00000   3.00000

 Dipole moment (field-independent basis, Debye):
    X=             -0.0000    Y=              0.0000    Z=             -0.0000  Tot=              0.0000
 Quadrupole moment (field-independent basis, Debye-Ang):
   XX=            -21.8702   YY=            -23.0088   ZZ=            -57.3383
   XY=              0.0000   XZ=              0.0000   YZ=              0.0000

 00.1676109\CCSD=-300.1773444\CCSD(T)=-300.2252652\RMSD=3.709e-09\PG=D*
 Normal termination of Gaussian 16 at Sun Jan 15 07:22:00 2023.
