 Gaussian 16, Revision A.03,
 Gaussian 16:  ES64L-G16RevA.03 25-Dec-2016

 ---------------------------------------------------------------
 #p ROCCSD(T)/cc-pVTZ Guess=Read SCF=(VeryTight,CDIIS,VShift=10)
 ---------------------------------------------------------------

 ---------
 O2_O2_183
 ---------
 Symbolic Z-matrix:
 Charge = -1 Multiplicity = 4

                         Standard orientation:
 ---------------------------------------------------------------------
 Center     Atomic      Atomic             Coordinates (Angstroms)
 Number     Number       Type             X           Y           Z
 ---------------------------------------------------------------------
      1          8           0        0.000000    0.000000    2.088086
      2          8           0        0.000000    0.000000    3.440466
      3          8           0        0.000000    0.000000   -3.440466
      4          8           0        0.000000    0.000000   -2.088086
 ---------------------------------------------------------------------

 SCF Done:  E(ROHF) =  -299.197066452     A.U. after    8 cycles
 E2 =    -0.9833118740D+00 EUMP2 =    -0.30018037832605D+03
 CCSD(T)
 CCSD(T)= -0.30022524270D+03

 Unable to determine electronic state:  an orbital has unidentified symmetry.
 Alpha  occ. eigenvalues --  -20.49203 -20.49203 -20.44264 -20.44264  -1.32034
 Alpha  occ. eigenvalues --   -1.32032  -0.94853  -0.94831  -0.52052  -0.52048
 Alpha  occ. eigenvalues --   -0.48563  -0.48549  -0.44693  -0.44576  -0.28817
 Alpha  occ. eigenvalues --   -0.28786  -0.27239  -0.27128
 Alpha virt. eigenvalues --    0.48979   0.51383   0.88170   0.90483   0.90530
 Alpha virt. eigenvalues --    0.90917   0.92531   0.92673   0.94809   1.01327
 Alpha virt. eigenvalues --    1.01803   1.02098   1.02637   1.03030   1.12439

 Mulliken charges and spin densities:
               1          2
     1  O   -0.323175   0.572595
     2  O   -0.176825   0.927405
     3  O   -0.176825   0.927405
     4  O   -0.323175   0.572595
 Sum of Mulliken charges =  -1.00000   3.00000

 Dipole moment (field-independent basis, Debye):
    X=             -0.0000    Y=             -0.0000    Z=              0.0000  Tot=              0.0000
 Quadrupole moment (field-independent basis, Debye-Ang):
   XX=            -21.8701   YY=            -23.0087   ZZ=            -57.5008
   XY=              0.0000   XZ=              0.0000   YZ=              0.0000

 00.1675893\CCSD=-300.177321\CCSD(T)=-300.2252427\RMSD=3.687e-09\PG=D*H
 Normal termination of Gaussian 16 at Sun Jan 15 07:24:41 2023.
