 Gaussian 16, Revision A.03,
 Gaussian 16:  ES64L-G16RevA.03 25-Dec-2016

 ---------------------------------------------------------------
 #p ROCCSD(T)/cc-pVTZ Guess=Read SCF=(VeryTight,CDIIS,VShift=10)
 ---------------------------------------------------------------

 ---------
 O2_O2_224
 ---------
 Symbolic Z-matrix:
 Charge = -1 Multiplicity = 4

                         Standard orientation:
 ---------------------------------------------------------------------
 Center     Atomic      Atomic             Coordinates (Angstroms)
 Number     Number       Type             X           Y           Z
 ---------------------------------------------------------------------
      1          8           0        0.000000    0.000000    2.378337
      2          8           0        0.000000    0.000000    3.730717
      3          8           0        0.000000    0.000000   -3.730717
      4          8           0        0.000000    0.000000   -2.378337
 ---------------------------------------------------------------------

 SCF Done:  E(ROHF) =  -299.196493400     A.U. after    7 cycles
 E2 =    -0.9844662792D+00 EUMP2 =    -0.30018095967967D+03
 CCSD(T)
 CCSD(T)= -0.30022466775D+03

 Unable to determine electronic state:  an orbital has unidentified symmetry.
 Alpha  occ. eigenvalues --  -20.49792 -20.49792 -20.44697 -20.44697  -1.32540
 Alpha  occ. eigenvalues --   -1.32539  -0.95354  -0.95350  -0.52580  -0.52580
 Alpha  occ. eigenvalues --   -0.49072  -0.49054  -0.45179  -0.45151  -0.29296
 Alpha  occ. eigenvalues --   -0.29291  -0.27747  -0.27616
 Alpha virt. eigenvalues --    0.49338   0.50065   0.89177   0.90014   0.90039
 Alpha virt. eigenvalues --    0.90047   0.92110   0.92150   0.96376   0.98476
 Alpha virt. eigenvalues --    1.01114   1.01251   1.01574   1.01830   1.11952

 Mulliken charges and spin densities:
               1          2
     1  O   -0.329129   0.567188
     2  O   -0.170871   0.932812
     3  O   -0.170871   0.932812
     4  O   -0.329129   0.567188
 Sum of Mulliken charges =  -1.00000   3.00000

 Dipole moment (field-independent basis, Debye):
    X=             -0.0000    Y=             -0.0000    Z=              0.0000  Tot=              0.0000
 Quadrupole moment (field-independent basis, Debye-Ang):
   XX=            -21.8685   YY=            -23.0061   ZZ=            -64.5919
   XY=              0.0000   XZ=              0.0000   YZ=              0.0000

 670385\CCSD=-300.1767083\CCSD(T)=-300.2246678\RMSD=5.750e-09\PG=D*H [C
 Normal termination of Gaussian 16 at Mon Jan 16 03:40:46 2023.
