 Gaussian 16, Revision A.03,
 Gaussian 16:  ES64L-G16RevA.03 25-Dec-2016

 ---------------------------------------------------------------
 #p ROCCSD(T)/cc-pVTZ Guess=Read SCF=(VeryTight,CDIIS,VShift=10)
 ---------------------------------------------------------------

 ---------
 O2_O2_156
 ---------
 Symbolic Z-matrix:
 Charge = -1 Multiplicity = 4

                         Standard orientation:
 ---------------------------------------------------------------------
 Center     Atomic      Atomic             Coordinates (Angstroms)
 Number     Number       Type             X           Y           Z
 ---------------------------------------------------------------------
      1          8           0        0.000000    0.000000    1.896945
      2          8           0        0.000000    0.000000    3.249325
      3          8           0        0.000000    0.000000   -3.249325
      4          8           0        0.000000    0.000000   -1.896945
 ---------------------------------------------------------------------

 SCF Done:  E(ROHF) =  -299.197872127     A.U. after    8 cycles
 E2 =    -0.9823681052D+00 EUMP2 =    -0.30018024023194D+03
 CCSD(T)
 CCSD(T)= -0.30022608647D+03

 Unable to determine electronic state:  an orbital has unidentified symmetry.
 Alpha  occ. eigenvalues --  -20.48742 -20.48742 -20.43946 -20.43946  -1.31649
 Alpha  occ. eigenvalues --   -1.31642  -0.94479  -0.94420  -0.51648  -0.51637
 Alpha  occ. eigenvalues --   -0.48168  -0.48164  -0.44356  -0.44086  -0.28466
 Alpha  occ. eigenvalues --   -0.28386  -0.26835  -0.26764
 Alpha virt. eigenvalues --    0.48445   0.52588   0.86537   0.90795   0.90919
 Alpha virt. eigenvalues --    0.91315   0.92782   0.93125   0.93710   1.01125
 Alpha virt. eigenvalues --    1.01658   1.03145   1.03623   1.09452   1.12805

 Mulliken charges and spin densities:
               1          2
     1  O   -0.318204   0.577129
     2  O   -0.181796   0.922871
     3  O   -0.181796   0.922871
     4  O   -0.318204   0.577129
 Sum of Mulliken charges =  -1.00000   3.00000

 Dipole moment (field-independent basis, Debye):
    X=             -0.0000    Y=             -0.0000    Z=             -0.0000  Tot=              0.0000
 Quadrupole moment (field-independent basis, Debye-Ang):
   XX=            -21.8716   YY=            -23.0137   ZZ=            -53.2919
   XY=              0.0000   XZ=              0.0000   YZ=              0.0000

 .1684018\CCSD=-300.1781831\CCSD(T)=-300.2260865\RMSD=4.028e-09\PG=D*H
 Normal termination of Gaussian 16 at Sun Jan 15 06:09:41 2023.
