 Gaussian 16, Revision A.03,
 Gaussian 16:  ES64L-G16RevA.03 25-Dec-2016

 ---------------------------------------------------------------
 #p ROCCSD(T)/cc-pVTZ Guess=Read SCF=(VeryTight,CDIIS,VShift=10)
 ---------------------------------------------------------------

 --------
 O2_O2_66
 --------
 Symbolic Z-matrix:
 Charge = -1 Multiplicity = 4

                         Standard orientation:
 ---------------------------------------------------------------------
 Center     Atomic      Atomic             Coordinates (Angstroms)
 Number     Number       Type             X           Y           Z
 ---------------------------------------------------------------------
      1          8           0        0.000000    0.000000    1.259809
      2          8           0        0.000000    0.000000    2.612189
      3          8           0        0.000000    0.000000   -2.612189
      4          8           0        0.000000    0.000000   -1.259809
 ---------------------------------------------------------------------

 SCF Done:  E(ROHF) =  -299.206871858     A.U. after   11 cycles
 E2 =    -0.9762488935D+00 EUMP2 =    -0.30018312075127D+03
 CCSD(T)
 CCSD(T)= -0.30023486373D+03

 Unable to determine electronic state:  an orbital has unidentified symmetry.
 Alpha  occ. eigenvalues --  -20.46442 -20.46442 -20.42624 -20.42624  -1.30019
 Alpha  occ. eigenvalues --   -1.29795  -0.93426  -0.91945  -0.49883  -0.49644
 Alpha  occ. eigenvalues --   -0.46563  -0.46184  -0.44050  -0.40491  -0.27378
 Alpha  occ. eigenvalues --   -0.26088  -0.25470  -0.24547
 Alpha virt. eigenvalues --    0.50402   0.57893   0.90533   0.91602   0.92427
 Alpha virt. eigenvalues --    0.92756   0.92831   0.95363   0.97785   0.99424
 Alpha virt. eigenvalues --    1.00659   1.12994   1.13119   1.13649   1.14340

 Mulliken charges and spin densities:
               1          2
     1  O   -0.284302   0.600651
     2  O   -0.215698   0.899349
     3  O   -0.215698   0.899349
     4  O   -0.284302   0.600651
 Sum of Mulliken charges =  -1.00000   3.00000

 Dipole moment (field-independent basis, Debye):
    X=             -0.0000    Y=              0.0000    Z=             -0.0000  Tot=              0.0000
 Quadrupole moment (field-independent basis, Debye-Ang):
   XX=            -21.8752   YY=            -23.0752   ZZ=            -42.0474
   XY=              0.0000   XZ=              0.0000   YZ=              0.0000

 0.1771835\CCSD=-300.1870551\CCSD(T)=-300.2348637\RMSD=1.810e-09\PG=D*H
 Normal termination of Gaussian 16 at Sun Jan 15 02:05:52 2023.
