 Gaussian 16, Revision A.03,
 Gaussian 16:  ES64L-G16RevA.03 25-Dec-2016

 ---------------------------------------------------------------
 #p ROCCSD(T)/cc-pVTZ Guess=Read SCF=(VeryTight,CDIIS,VShift=10)
 ---------------------------------------------------------------

 ---------
 O2_O2_202
 ---------
 Symbolic Z-matrix:
 Charge = -1 Multiplicity = 4

                         Standard orientation:
 ---------------------------------------------------------------------
 Center     Atomic      Atomic             Coordinates (Angstroms)
 Number     Number       Type             X           Y           Z
 ---------------------------------------------------------------------
      1          8           0        0.000000    0.000000    2.222593
      2          8           0        0.000000    0.000000    3.574973
      3          8           0        0.000000    0.000000   -3.574973
      4          8           0        0.000000    0.000000   -2.222593
 ---------------------------------------------------------------------

 SCF Done:  E(ROHF) =  -299.196734316     A.U. after    7 cycles
 E2 =    -0.9838829283D+00 EUMP2 =    -0.30018061724413D+03
 CCSD(T)
 CCSD(T)= -0.30022490556D+03

 Unable to determine electronic state:  an orbital has unidentified symmetry.
 Alpha  occ. eigenvalues --  -20.49491 -20.49491 -20.44473 -20.44473  -1.32280
 Alpha  occ. eigenvalues --   -1.32279  -0.95096  -0.95085  -0.52309  -0.52307
 Alpha  occ. eigenvalues --   -0.48811  -0.48794  -0.44925  -0.44862  -0.29048
 Alpha  occ. eigenvalues --   -0.29033  -0.27488  -0.27364
 Alpha virt. eigenvalues --    0.49233   0.50688   0.88856   0.90270   0.90292
 Alpha virt. eigenvalues --    0.90507   0.92335   0.92411   0.95686   1.00303
 Alpha virt. eigenvalues --    1.01273   1.01634   1.01736   1.02196   1.12200

 Mulliken charges and spin densities:
               1          2
     1  O   -0.326136   0.569894
     2  O   -0.173864   0.930106
     3  O   -0.173864   0.930106
     4  O   -0.326136   0.569894
 Sum of Mulliken charges =  -1.00000   3.00000

 Dipole moment (field-independent basis, Debye):
    X=             -0.0000    Y=             -0.0000    Z=              0.0000  Tot=              0.0000
 Quadrupole moment (field-independent basis, Debye-Ang):
   XX=            -21.8693   YY=            -23.0070   ZZ=            -60.6824
   XY=              0.0000   XZ=              0.0000   YZ=              0.0000

 00.1672654\CCSD=-300.1769666\CCSD(T)=-300.2249056\RMSD=9.238e-09\PG=D*
 Normal termination of Gaussian 16 at Sun Jan 15 08:16:38 2023.
