 Gaussian 16, Revision A.03,
 Gaussian 16:  ES64L-G16RevA.03 25-Dec-2016

 ---------------------------------------------------------------
 #p ROCCSD(T)/cc-pVTZ Guess=Read SCF=(VeryTight,CDIIS,VShift=10)
 ---------------------------------------------------------------

 ---------
 O2_O2_164
 ---------
 Symbolic Z-matrix:
 Charge = -1 Multiplicity = 4

                         Standard orientation:
 ---------------------------------------------------------------------
 Center     Atomic      Atomic             Coordinates (Angstroms)
 Number     Number       Type             X           Y           Z
 ---------------------------------------------------------------------
      1          8           0        0.000000    0.000000    1.953579
      2          8           0        0.000000    0.000000    3.305959
      3          8           0        0.000000    0.000000   -3.305959
      4          8           0        0.000000    0.000000   -1.953579
 ---------------------------------------------------------------------

 SCF Done:  E(ROHF) =  -299.197581028     A.U. after    8 cycles
 E2 =    -0.9826667031D+00 EUMP2 =    -0.30018024773148D+03
 CCSD(T)
 CCSD(T)= -0.30022577919D+03

 Unable to determine electronic state:  an orbital has unidentified symmetry.
 Alpha  occ. eigenvalues --  -20.48885 -20.48885 -20.44043 -20.44043  -1.31768
 Alpha  occ. eigenvalues --   -1.31763  -0.94593  -0.94549  -0.51773  -0.51765
 Alpha  occ. eigenvalues --   -0.48291  -0.48282  -0.44456  -0.44244  -0.28573
 Alpha  occ. eigenvalues --   -0.28511  -0.26962  -0.26875
 Alpha virt. eigenvalues --    0.48605   0.52210   0.87049   0.90702   0.90797
 Alpha virt. eigenvalues --    0.91228   0.92714   0.92980   0.93977   1.01231
 Alpha virt. eigenvalues --    1.01740   1.02773   1.03273   1.07228   1.12693

 Mulliken charges and spin densities:
               1          2
     1  O   -0.319786   0.575691
     2  O   -0.180214   0.924309
     3  O   -0.180214   0.924309
     4  O   -0.319786   0.575691
 Sum of Mulliken charges =  -1.00000   3.00000

 Dipole moment (field-independent basis, Debye):
    X=             -0.0000    Y=              0.0000    Z=              0.0000  Tot=              0.0000
 Quadrupole moment (field-independent basis, Debye-Ang):
   XX=            -21.8711   YY=            -23.0118   ZZ=            -54.5004
   XY=              0.0000   XZ=              0.0000   YZ=              0.0000

 .1681055\CCSD=-300.1778715\CCSD(T)=-300.2257792\RMSD=3.907e-09\PG=D*H
 Normal termination of Gaussian 16 at Sun Jan 15 06:30:33 2023.
