 Gaussian 16, Revision A.03,
 Gaussian 16:  ES64L-G16RevA.03 25-Dec-2016

 ---------------------------------------------------------------
 #p ROCCSD(T)/cc-pVTZ Guess=Read SCF=(VeryTight,CDIIS,VShift=10)
 ---------------------------------------------------------------

 ---------
 O2_O2_132
 ---------
 Symbolic Z-matrix:
 Charge = -1 Multiplicity = 4

                         Standard orientation:
 ---------------------------------------------------------------------
 Center     Atomic      Atomic             Coordinates (Angstroms)
 Number     Number       Type             X           Y           Z
 ---------------------------------------------------------------------
      1          8           0        0.000000    0.000000    1.727042
      2          8           0        0.000000    0.000000    3.079422
      3          8           0        0.000000    0.000000   -3.079422
      4          8           0        0.000000    0.000000   -1.727042
 ---------------------------------------------------------------------

 SCF Done:  E(ROHF) =  -299.199114464     A.U. after    8 cycles
 E2 =    -0.9813391440D+00 EUMP2 =    -0.30018045360764D+03
 CCSD(T)
 CCSD(T)= -0.30022739814D+03

 Unable to determine electronic state:  an orbital has unidentified symmetry.
 Alpha  occ. eigenvalues --  -20.48268 -20.48268 -20.43641 -20.43641  -1.31267
 Alpha  occ. eigenvalues --   -1.31251  -0.94124  -0.93983  -0.51245  -0.51220
 Alpha  occ. eigenvalues --   -0.47782  -0.47764  -0.44074  -0.43528  -0.28140
 Alpha  occ. eigenvalues --   -0.27962  -0.26414  -0.26407
 Alpha virt. eigenvalues --    0.48193   0.53795   0.85752   0.91064   0.91327
 Alpha virt. eigenvalues --    0.91402   0.92920   0.93240   0.93623   1.00510
 Alpha virt. eigenvalues --    1.01167   1.04695   1.05088   1.12807   1.13166

 Mulliken charges and spin densities:
               1          2
     1  O   -0.312733   0.582000
     2  O   -0.187267   0.918000
     3  O   -0.187267   0.918000
     4  O   -0.312733   0.582000
 Sum of Mulliken charges =  -1.00000   3.00000

 Dipole moment (field-independent basis, Debye):
    X=             -0.0000    Y=             -0.0000    Z=             -0.0000  Tot=              0.0000
 Quadrupole moment (field-independent basis, Debye-Ang):
   XX=            -21.8731   YY=            -23.0222   ZZ=            -49.8641
   XY=              0.0000   XZ=              0.0000   YZ=              0.0000

 00.1696745\CCSD=-300.1795025\CCSD(T)=-300.2273981\RMSD=5.470e-09\PG=D*
 Normal termination of Gaussian 16 at Sun Jan 15 05:03:38 2023.
