 Gaussian 16, Revision A.03,
 Gaussian 16:  ES64L-G16RevA.03 25-Dec-2016

 ---------------------------------------------------------------
 #p ROCCSD(T)/cc-pVTZ Guess=Read SCF=(VeryTight,CDIIS,VShift=10)
 ---------------------------------------------------------------

 ---------
 O2_O2_274
 ---------
 Symbolic Z-matrix:
 Charge = -1 Multiplicity = 4

                         Standard orientation:
 ---------------------------------------------------------------------
 Center     Atomic      Atomic             Coordinates (Angstroms)
 Number     Number       Type             X           Y           Z
 ---------------------------------------------------------------------
      1          8           0        0.000000    0.000000    2.732301
      2          8           0        0.000000    0.000000    4.084681
      3          8           0        0.000000    0.000000   -4.084681
      4          8           0        0.000000    0.000000   -2.732301
 ---------------------------------------------------------------------

 SCF Done:  E(ROHF) =  -299.196215938     A.U. after    7 cycles
 E2 =    -0.9855483225D+00 EUMP2 =    -0.30018176426057D+03
 CCSD(T)
 CCSD(T)= -0.30022440446D+03

 Unable to determine electronic state:  an orbital has unidentified symmetry.
 Alpha  occ. eigenvalues --  -20.50369 -20.50369 -20.45141 -20.45141  -1.33044
 Alpha  occ. eigenvalues --   -1.33044  -0.95858  -0.95857  -0.53105  -0.53105
 Alpha  occ. eigenvalues --   -0.49577  -0.49558  -0.45689  -0.45685  -0.29785
 Alpha  occ. eigenvalues --   -0.29784  -0.28242  -0.28109
 Alpha virt. eigenvalues --    0.49116   0.49216   0.89101   0.89221   0.89578
 Alpha virt. eigenvalues --    0.89578   0.91647   0.91665   0.96603   0.96840
 Alpha virt. eigenvalues --    1.00656   1.00667   1.01123   1.01262   1.11471

 Mulliken charges and spin densities:
               1          2
     1  O   -0.334540   0.562330
     2  O   -0.165460   0.937670
     3  O   -0.165460   0.937670
     4  O   -0.334540   0.562330
 Sum of Mulliken charges =  -1.00000   3.00000

 Dipole moment (field-independent basis, Debye):
    X=             -0.0000    Y=             -0.0000    Z=             -0.0000  Tot=              0.0000
 Quadrupole moment (field-independent basis, Debye-Ang):
   XX=            -21.8674   YY=            -23.0057   ZZ=            -74.3804
   XY=              0.0000   XZ=              0.0000   YZ=              0.0000

 667935\CCSD=-300.1764048\CCSD(T)=-300.2244045\RMSD=5.800e-09\PG=D*H [C
 Normal termination of Gaussian 16 at Mon Jan 16 04:40:54 2023.
