 Gaussian 16, Revision A.03,
 Gaussian 16:  ES64L-G16RevA.03 25-Dec-2016

 ---------------------------------------------------------------
 #p ROCCSD(T)/cc-pVTZ Guess=Read SCF=(VeryTight,CDIIS,VShift=10)
 ---------------------------------------------------------------

 --------
 O2_O2_67
 --------
 Symbolic Z-matrix:
 Charge = -1 Multiplicity = 4

                         Standard orientation:
 ---------------------------------------------------------------------
 Center     Atomic      Atomic             Coordinates (Angstroms)
 Number     Number       Type             X           Y           Z
 ---------------------------------------------------------------------
      1          8           0        0.000000    0.000000    1.266888
      2          8           0        0.000000    0.000000    2.619268
      3          8           0        0.000000    0.000000   -2.619268
      4          8           0        0.000000    0.000000   -1.266888
 ---------------------------------------------------------------------

 SCF Done:  E(ROHF) =  -299.206731863     A.U. after   11 cycles
 E2 =    -0.9763721260D+00 EUMP2 =    -0.30018310398904D+03
 CCSD(T)
 CCSD(T)= -0.30023474697D+03

 Unable to determine electronic state:  an orbital has unidentified symmetry.
 Alpha  occ. eigenvalues --  -20.46479 -20.46478 -20.42644 -20.42644  -1.30040
 Alpha  occ. eigenvalues --   -1.29824  -0.93424  -0.91994  -0.49907  -0.49675
 Alpha  occ. eigenvalues --   -0.46582  -0.46217  -0.44031  -0.40570  -0.27384
 Alpha  occ. eigenvalues --   -0.26131  -0.25481  -0.24589
 Alpha virt. eigenvalues --    0.50357   0.57812   0.90545   0.91590   0.92431
 Alpha virt. eigenvalues --    0.92732   0.92843   0.95334   0.97798   0.99424
 Alpha virt. eigenvalues --    1.00195   1.12841   1.12968   1.13642   1.14321

 Mulliken charges and spin densities:
               1          2
     1  O   -0.285008   0.600334
     2  O   -0.214992   0.899666
     3  O   -0.214992   0.899666
     4  O   -0.285008   0.600334
 Sum of Mulliken charges =  -1.00000   3.00000

 Dipole moment (field-independent basis, Debye):
    X=             -0.0000    Y=             -0.0000    Z=             -0.0000  Tot=              0.0000
 Quadrupole moment (field-independent basis, Debye-Ang):
   XX=            -21.8753   YY=            -23.0742   ZZ=            -42.1456
   XY=              0.0000   XZ=              0.0000   YZ=              0.0000

 1770621\CCSD=-300.1869352\CCSD(T)=-300.234747\RMSD=2.040e-09\PG=D*H [C
 Normal termination of Gaussian 16 at Sun Jan 15 02:08:34 2023.
