 Gaussian 16, Revision A.03,
 Gaussian 16:  ES64L-G16RevA.03 25-Dec-2016

 ---------------------------------------------------------------
 #p ROCCSD(T)/cc-pVTZ Guess=Read SCF=(VeryTight,CDIIS,VShift=10)
 ---------------------------------------------------------------

 ---------
 O2_O2_149
 ---------
 Symbolic Z-matrix:
 Charge = -1 Multiplicity = 4

                         Standard orientation:
 ---------------------------------------------------------------------
 Center     Atomic      Atomic             Coordinates (Angstroms)
 Number     Number       Type             X           Y           Z
 ---------------------------------------------------------------------
      1          8           0        0.000000    0.000000    1.847390
      2          8           0        0.000000    0.000000    3.199770
      3          8           0        0.000000    0.000000   -3.199770
      4          8           0        0.000000    0.000000   -1.847390
 ---------------------------------------------------------------------

 SCF Done:  E(ROHF) =  -299.198171785     A.U. after    8 cycles
 E2 =    -0.9820908454D+00 EUMP2 =    -0.30018026263009D+03
 CCSD(T)
 CCSD(T)= -0.30022640373D+03

 Unable to determine electronic state:  an orbital has unidentified symmetry.
 Alpha  occ. eigenvalues --  -20.48610 -20.48610 -20.43859 -20.43859  -1.31541
 Alpha  occ. eigenvalues --   -1.31533  -0.94377  -0.94300  -0.51535  -0.51521
 Alpha  occ. eigenvalues --   -0.48056  -0.48056  -0.44270  -0.43938  -0.28372
 Alpha  occ. eigenvalues --   -0.28270  -0.26718  -0.26664
 Alpha virt. eigenvalues --    0.48324   0.52931   0.86145   0.90875   0.91032
 Alpha virt. eigenvalues --    0.91369   0.92834   0.93260   0.93526   1.00994
 Alpha virt. eigenvalues --    1.01554   1.03524   1.03981   1.11385   1.12907

 Mulliken charges and spin densities:
               1          2
     1  O   -0.316732   0.578459
     2  O   -0.183268   0.921541
     3  O   -0.183268   0.921541
     4  O   -0.316732   0.578459
 Sum of Mulliken charges =  -1.00000   3.00000

 Dipole moment (field-independent basis, Debye):
    X=             -0.0000    Y=              0.0000    Z=             -0.0000  Tot=              0.0000
 Quadrupole moment (field-independent basis, Debye-Ang):
   XX=            -21.8720   YY=            -23.0157   ZZ=            -52.2614
   XY=              0.0000   XZ=              0.0000   YZ=              0.0000

 .1687083\CCSD=-300.1785033\CCSD(T)=-300.2264037\RMSD=4.270e-09\PG=D*H
 Normal termination of Gaussian 16 at Sun Jan 15 05:47:41 2023.
