 Gaussian 16, Revision A.03,
 Gaussian 16:  ES64L-G16RevA.03 25-Dec-2016

 ---------------------------------------------------------------
 #p ROCCSD(T)/cc-pVTZ Guess=Read SCF=(VeryTight,CDIIS,VShift=10)
 ---------------------------------------------------------------

 ---------
 O2_O2_152
 ---------
 Symbolic Z-matrix:
 Charge = -1 Multiplicity = 4

                         Standard orientation:
 ---------------------------------------------------------------------
 Center     Atomic      Atomic             Coordinates (Angstroms)
 Number     Number       Type             X           Y           Z
 ---------------------------------------------------------------------
      1          8           0        0.000000    0.000000    1.868627
      2          8           0        0.000000    0.000000    3.221008
      3          8           0        0.000000    0.000000   -3.221008
      4          8           0        0.000000    0.000000   -1.868627
 ---------------------------------------------------------------------

 SCF Done:  E(ROHF) =  -299.198037821     A.U. after    8 cycles
 E2 =    -0.9822116491D+00 EUMP2 =    -0.30018024947022D+03
 CCSD(T)
 CCSD(T)= -0.30022626185D+03

 Unable to determine electronic state:  an orbital has unidentified symmetry.
 Alpha  occ. eigenvalues --  -20.48667 -20.48667 -20.43896 -20.43896  -1.31588
 Alpha  occ. eigenvalues --   -1.31580  -0.94421  -0.94352  -0.51584  -0.51571
 Alpha  occ. eigenvalues --   -0.48104  -0.48103  -0.44307  -0.44003  -0.28413
 Alpha  occ. eigenvalues --   -0.28320  -0.26769  -0.26707
 Alpha virt. eigenvalues --    0.48373   0.52783   0.86303   0.90841   0.90983
 Alpha virt. eigenvalues --    0.91349   0.92813   0.93201   0.93599   1.01055
 Alpha virt. eigenvalues --    1.01602   1.03355   1.03821   1.10598   1.12863

 Mulliken charges and spin densities:
               1          2
     1  O   -0.317373   0.577881
     2  O   -0.182627   0.922119
     3  O   -0.182627   0.922119
     4  O   -0.317373   0.577881
 Sum of Mulliken charges =  -1.00000   3.00000

 Dipole moment (field-independent basis, Debye):
    X=             -0.0000    Y=             -0.0000    Z=             -0.0000  Tot=              0.0000
 Quadrupole moment (field-independent basis, Debye-Ang):
   XX=            -21.8718   YY=            -23.0148   ZZ=            -52.6999
   XY=              0.0000   XZ=              0.0000   YZ=              0.0000

 00.1685711\CCSD=-300.1783602\CCSD(T)=-300.2262619\RMSD=4.148e-09\PG=D*
 Normal termination of Gaussian 16 at Sun Jan 15 05:56:01 2023.
