 Gaussian 16, Revision A.03,
 Gaussian 16:  ES64L-G16RevA.03 25-Dec-2016

 ---------------------------------------------------------------
 #p ROCCSD(T)/cc-pVTZ Guess=Read SCF=(VeryTight,CDIIS,VShift=10)
 ---------------------------------------------------------------

 ---------
 O2_O2_288
 ---------
 Symbolic Z-matrix:
 Charge = -1 Multiplicity = 4

                         Standard orientation:
 ---------------------------------------------------------------------
 Center     Atomic      Atomic             Coordinates (Angstroms)
 Number     Number       Type             X           Y           Z
 ---------------------------------------------------------------------
      1          8           0        0.000000    0.000000    2.831412
      2          8           0        0.000000    0.000000    4.183792
      3          8           0        0.000000    0.000000   -4.183792
      4          8           0        0.000000    0.000000   -2.831412
 ---------------------------------------------------------------------

 SCF Done:  E(ROHF) =  -299.196169628     A.U. after    7 cycles
 E2 =    -0.9858040739D+00 EUMP2 =    -0.30018197370222D+03
 CCSD(T)
 CCSD(T)= -0.30022436237D+03

 Unable to determine electronic state:  an orbital has unidentified symmetry.
 Alpha  occ. eigenvalues --  -20.50508 -20.50508 -20.45250 -20.45250  -1.33167
 Alpha  occ. eigenvalues --   -1.33167  -0.95980  -0.95980  -0.53232  -0.53232
 Alpha  occ. eigenvalues --   -0.49699  -0.49681  -0.45814  -0.45812  -0.29905
 Alpha  occ. eigenvalues --   -0.29904  -0.28362  -0.28229
 Alpha virt. eigenvalues --    0.49009   0.49061   0.89012   0.89075   0.89464
 Alpha virt. eigenvalues --    0.89465   0.91531   0.91548   0.96510   0.96628
 Alpha virt. eigenvalues --    1.00532   1.00538   1.01003   1.01135   1.11353

 Mulliken charges and spin densities:
               1          2
     1  O   -0.335774   0.561221
     2  O   -0.164226   0.938779
     3  O   -0.164226   0.938779
     4  O   -0.335774   0.561221
 Sum of Mulliken charges =  -1.00000   3.00000

 Dipole moment (field-independent basis, Debye):
    X=             -0.0000    Y=              0.0000    Z=             -0.0000  Tot=              0.0000
 Quadrupole moment (field-independent basis, Debye-Ang):
   XX=            -21.8672   YY=            -23.0057   ZZ=            -77.3458
   XY=              0.0000   XZ=              0.0000   YZ=              0.0000

 667559\CCSD=-300.1763531\CCSD(T)=-300.2243624\RMSD=5.640e-09\PG=D*H [C
 Normal termination of Gaussian 16 at Mon Jan 16 04:57:49 2023.
