 Gaussian 16, Revision A.03,
 Gaussian 16:  ES64L-G16RevA.03 25-Dec-2016

 ---------------------------------------------------------------
 #p ROCCSD(T)/cc-pVTZ Guess=Read SCF=(VeryTight,CDIIS,VShift=10)
 ---------------------------------------------------------------

 ---------
 O2_O2_191
 ---------
 Symbolic Z-matrix:
 Charge = -1 Multiplicity = 4

                         Standard orientation:
 ---------------------------------------------------------------------
 Center     Atomic      Atomic             Coordinates (Angstroms)
 Number     Number       Type             X           Y           Z
 ---------------------------------------------------------------------
      1          8           0        0.000000    0.000000    2.144720
      2          8           0        0.000000    0.000000    3.497100
      3          8           0        0.000000    0.000000   -3.497100
      4          8           0        0.000000    0.000000   -2.144720
 ---------------------------------------------------------------------

 SCF Done:  E(ROHF) =  -299.196908544     A.U. after    8 cycles
 E2 =    -0.9835605555D+00 EUMP2 =    -0.30018046909952D+03
 CCSD(T)
 CCSD(T)= -0.30022508114D+03

 Unable to determine electronic state:  an orbital has unidentified symmetry.
 Alpha  occ. eigenvalues --  -20.49328 -20.49328 -20.44354 -20.44354  -1.32140
 Alpha  occ. eigenvalues --   -1.32139  -0.94958  -0.94941  -0.52163  -0.52160
 Alpha  occ. eigenvalues --   -0.48670  -0.48654  -0.44792  -0.44701  -0.28916
 Alpha  occ. eigenvalues --   -0.28893  -0.27347  -0.27230
 Alpha virt. eigenvalues --    0.49105   0.51073   0.88516   0.90392   0.90427
 Alpha virt. eigenvalues --    0.90752   0.92449   0.92558   0.95193   1.01318
 Alpha virt. eigenvalues --    1.01722   1.01787   1.01883   1.02433   1.12335

 Mulliken charges and spin densities:
               1          2
     1  O   -0.324468   0.571413
     2  O   -0.175532   0.928587
     3  O   -0.175532   0.928587
     4  O   -0.324468   0.571413
 Sum of Mulliken charges =  -1.00000   3.00000

 Dipole moment (field-independent basis, Debye):
    X=             -0.0000    Y=              0.0000    Z=              0.0000  Tot=              0.0000
 Quadrupole moment (field-independent basis, Debye-Ang):
   XX=            -21.8697   YY=            -23.0078   ZZ=            -58.8184
   XY=              0.0000   XZ=              0.0000   YZ=              0.0000

 .167434\CCSD=-300.1771524\CCSD(T)=-300.2250811\RMSD=3.457e-09\PG=D*H [
 Normal termination of Gaussian 16 at Sun Jan 15 07:45:28 2023.
