 Gaussian 16, Revision A.03,
 Gaussian 16:  ES64L-G16RevA.03 25-Dec-2016

 ---------------------------------------------------------------
 #p ROCCSD(T)/cc-pVTZ Guess=Read SCF=(VeryTight,CDIIS,VShift=10)
 ---------------------------------------------------------------

 ---------
 O2_O2_169
 ---------
 Symbolic Z-matrix:
 Charge = -1 Multiplicity = 4

                         Standard orientation:
 ---------------------------------------------------------------------
 Center     Atomic      Atomic             Coordinates (Angstroms)
 Number     Number       Type             X           Y           Z
 ---------------------------------------------------------------------
      1          8           0        0.000000    0.000000    1.988976
      2          8           0        0.000000    0.000000    3.341356
      3          8           0        0.000000    0.000000   -3.341356
      4          8           0        0.000000    0.000000   -1.988976
 ---------------------------------------------------------------------

 SCF Done:  E(ROHF) =  -299.197423537     A.U. after    8 cycles
 E2 =    -0.9828446231D+00 EUMP2 =    -0.30018026815964D+03
 CCSD(T)
 CCSD(T)= -0.30022561383D+03

 Unable to determine electronic state:  an orbital has unidentified symmetry.
 Alpha  occ. eigenvalues --  -20.48972 -20.48972 -20.44102 -20.44102  -1.31840
 Alpha  occ. eigenvalues --   -1.31836  -0.94663  -0.94626  -0.51849  -0.51842
 Alpha  occ. eigenvalues --   -0.48365  -0.48354  -0.44518  -0.44336  -0.28638
 Alpha  occ. eigenvalues --   -0.28587  -0.27038  -0.26943
 Alpha virt. eigenvalues --    0.48709   0.51982   0.87372   0.90644   0.90723
 Alpha virt. eigenvalues --    0.91159   0.92669   0.92894   0.94172   1.01275
 Alpha virt. eigenvalues --    1.01773   1.02569   1.03081   1.05967   1.12624

 Mulliken charges and spin densities:
               1          2
     1  O   -0.320725   0.574835
     2  O   -0.179275   0.925165
     3  O   -0.179275   0.925165
     4  O   -0.320725   0.574835
 Sum of Mulliken charges =  -1.00000   3.00000

 Dipole moment (field-independent basis, Debye):
    X=             -0.0000    Y=              0.0000    Z=              0.0000  Tot=              0.0000
 Quadrupole moment (field-independent basis, Debye-Ang):
   XX=            -21.8708   YY=            -23.0108   ZZ=            -55.2723
   XY=              0.0000   XZ=              0.0000   YZ=              0.0000

 00.1679463\CCSD=-300.1777029\CCSD(T)=-300.2256138\RMSD=3.872e-09\PG=D*
 Normal termination of Gaussian 16 at Sun Jan 15 06:44:17 2023.
