 Gaussian 16, Revision A.03,
 Gaussian 16:  ES64L-G16RevA.03 25-Dec-2016

 ----------------------------------------------------
 #p ROCCSD(T)/cc-pVTZ SCF=(VeryTight,CDIIS,VShift=10)
 ----------------------------------------------------

 -------
 O2_O2_0
 -------
 Symbolic Z-matrix:
 Charge = -1 Multiplicity = 4

                         Standard orientation:
 ---------------------------------------------------------------------
 Center     Atomic      Atomic             Coordinates (Angstroms)
 Number     Number       Type             X           Y           Z
 ---------------------------------------------------------------------
      1          8           0        0.000000    0.000000    0.792575
      2          8           0        0.000000    0.000000    2.144956
      3          8           0        0.000000    0.000000   -2.144956
      4          8           0        0.000000    0.000000   -0.792575
 ---------------------------------------------------------------------

 SCF Done:  E(ROHF) =  -299.137191216     A.U. after   17 cycles
 E2 =    -0.9651996584D+00 EUMP2 =    -0.30010239087467D+03
 CCSD(T)
 CCSD(T)= -0.30016231989D+03

 Unable to determine electronic state:  an orbital has unidentified symmetry.
 Alpha  occ. eigenvalues --  -20.41794 -20.41794 -20.40163 -20.40162  -1.30166
 Alpha  occ. eigenvalues --   -1.26261  -0.99522  -0.84599  -0.49082  -0.48818
 Alpha  occ. eigenvalues --   -0.46820  -0.46134  -0.42291  -0.29264  -0.26712
 Alpha  occ. eigenvalues --   -0.26069  -0.20213  -0.19258
 Alpha virt. eigenvalues --    0.52038   0.68472   0.91036   0.91827   0.93735
 Alpha virt. eigenvalues --    0.94972   0.95004   0.97921   1.02857   1.04010
 Alpha virt. eigenvalues --    1.12887   1.13234   1.21147   1.21161   1.30593

 Mulliken charges and spin densities:
               1          2
     1  O   -0.190578   0.595590
     2  O   -0.309422   0.904410
     3  O   -0.309422   0.904410
     4  O   -0.190578   0.595590
 Sum of Mulliken charges =  -1.00000   3.00000

 Dipole moment (field-independent basis, Debye):
    X=             -0.0000    Y=              0.0000    Z=             -0.0000  Tot=              0.0000
 Quadrupole moment (field-independent basis, Debye-Ang):
   XX=            -21.6601   YY=            -22.9497   ZZ=            -38.4776
   XY=              0.0000   XZ=              0.0000   YZ=              0.0000

 SD=-300.1132749\CCSD(T)=-300.1623199\RMSD=4.357e-09\PG=D*H [C*(O1O1.O1
 Normal termination of Gaussian 16 at Sat Jan 14 23:07:10 2023.
