 Gaussian 16, Revision A.03,
 Gaussian 16:  ES64L-G16RevA.03 25-Dec-2016

 ---------------------------------------------------------------
 #p ROCCSD(T)/cc-pVTZ Guess=Read SCF=(VeryTight,CDIIS,VShift=10)
 ---------------------------------------------------------------

 ---------
 O2_O2_201
 ---------
 Symbolic Z-matrix:
 Charge = -1 Multiplicity = 4

                         Standard orientation:
 ---------------------------------------------------------------------
 Center     Atomic      Atomic             Coordinates (Angstroms)
 Number     Number       Type             X           Y           Z
 ---------------------------------------------------------------------
      1          8           0        0.000000    0.000000    2.215513
      2          8           0        0.000000    0.000000    3.567893
      3          8           0        0.000000    0.000000   -3.567893
      4          8           0        0.000000    0.000000   -2.215513
 ---------------------------------------------------------------------

 SCF Done:  E(ROHF) =  -299.196748378     A.U. after    7 cycles
 E2 =    -0.9838545185D+00 EUMP2 =    -0.30018060289700D+03
 CCSD(T)
 CCSD(T)= -0.30022491945D+03

 Unable to determine electronic state:  an orbital has unidentified symmetry.
 Alpha  occ. eigenvalues --  -20.49477 -20.49477 -20.44462 -20.44462  -1.32267
 Alpha  occ. eigenvalues --   -1.32266  -0.95084  -0.95073  -0.52296  -0.52294
 Alpha  occ. eigenvalues --   -0.48799  -0.48782  -0.44913  -0.44848  -0.29036
 Alpha  occ. eigenvalues --   -0.29021  -0.27476  -0.27352
 Alpha virt. eigenvalues --    0.49223   0.50721   0.88831   0.90281   0.90304
 Alpha virt. eigenvalues --    0.90529   0.92346   0.92424   0.95644   1.00416
 Alpha virt. eigenvalues --    1.01278   1.01654   1.01742   1.02216   1.12212

 Mulliken charges and spin densities:
               1          2
     1  O   -0.325989   0.570027
     2  O   -0.174011   0.929973
     3  O   -0.174011   0.929973
     4  O   -0.325989   0.570027
 Sum of Mulliken charges =  -1.00000   3.00000

 Dipole moment (field-independent basis, Debye):
    X=             -0.0000    Y=              0.0000    Z=              0.0000  Tot=              0.0000
 Quadrupole moment (field-independent basis, Debye-Ang):
   XX=            -21.8693   YY=            -23.0071   ZZ=            -60.5104
   XY=              0.0000   XZ=              0.0000   YZ=              0.0000

 00.1672788\CCSD=-300.1769815\CCSD(T)=-300.2249195\RMSD=9.518e-09\PG=D*
 Normal termination of Gaussian 16 at Sun Jan 15 08:14:07 2023.
