 Gaussian 16, Revision A.03,
 Gaussian 16:  ES64L-G16RevA.03 25-Dec-2016

 ---------------------------------------------------------------
 #p ROCCSD(T)/cc-pVTZ Guess=Read SCF=(VeryTight,CDIIS,VShift=10)
 ---------------------------------------------------------------

 ---------
 O2_O2_206
 ---------
 Symbolic Z-matrix:
 Charge = -1 Multiplicity = 4

                         Standard orientation:
 ---------------------------------------------------------------------
 Center     Atomic      Atomic             Coordinates (Angstroms)
 Number     Number       Type             X           Y           Z
 ---------------------------------------------------------------------
      1          8           0        0.000000    0.000000    2.250910
      2          8           0        0.000000    0.000000    3.603290
      3          8           0        0.000000    0.000000   -3.603290
      4          8           0        0.000000    0.000000   -2.250910
 ---------------------------------------------------------------------

 SCF Done:  E(ROHF) =  -299.196681203     A.U. after    7 cycles
 E2 =    -0.9839948417D+00 EUMP2 =    -0.30018067604427D+03
 CCSD(T)
 CCSD(T)= -0.30022485254D+03

 Unable to determine electronic state:  an orbital has unidentified symmetry.
 Alpha  occ. eigenvalues --  -20.49548 -20.49548 -20.44515 -20.44515  -1.32329
 Alpha  occ. eigenvalues --   -1.32328  -0.95145  -0.95136  -0.52360  -0.52359
 Alpha  occ. eigenvalues --   -0.48861  -0.48843  -0.44972  -0.44918  -0.29095
 Alpha  occ. eigenvalues --   -0.29082  -0.27537  -0.27412
 Alpha virt. eigenvalues --    0.49266   0.50560   0.88945   0.90227   0.90246
 Alpha virt. eigenvalues --    0.90415   0.92294   0.92361   0.95844   0.99882
 Alpha virt. eigenvalues --    1.01250   1.01554   1.01712   1.02120   1.12153

 Mulliken charges and spin densities:
               1          2
     1  O   -0.326713   0.569371
     2  O   -0.173287   0.930629
     3  O   -0.173287   0.930629
     4  O   -0.326713   0.569371
 Sum of Mulliken charges =  -1.00000   3.00000

 Dipole moment (field-independent basis, Debye):
    X=             -0.0000    Y=              0.0000    Z=             -0.0000  Tot=              0.0000
 Quadrupole moment (field-independent basis, Debye-Ang):
   XX=            -21.8691   YY=            -23.0068   ZZ=            -61.3752
   XY=              0.0000   XZ=              0.0000   YZ=              0.0000

 .1672146\CCSD=-300.1769098\CCSD(T)=-300.2248525\RMSD=8.285e-09\PG=D*H
 Normal termination of Gaussian 16 at Sun Jan 15 08:26:48 2023.
