 Gaussian 16, Revision A.03,
 Gaussian 16:  ES64L-G16RevA.03 25-Dec-2016

 ---------------------------------------------------------------
 #p ROCCSD(T)/cc-pVTZ Guess=Read SCF=(VeryTight,CDIIS,VShift=10)
 ---------------------------------------------------------------

 ---------
 O2_O2_103
 ---------
 Symbolic Z-matrix:
 Charge = -1 Multiplicity = 4

                         Standard orientation:
 ---------------------------------------------------------------------
 Center     Atomic      Atomic             Coordinates (Angstroms)
 Number     Number       Type             X           Y           Z
 ---------------------------------------------------------------------
      1          8           0        0.000000    0.000000    1.521743
      2          8           0        0.000000    0.000000    2.874123
      3          8           0        0.000000    0.000000   -2.874123
      4          8           0        0.000000    0.000000   -1.521743
 ---------------------------------------------------------------------

 SCF Done:  E(ROHF) =  -299.201687921     A.U. after    8 cycles
 E2 =    -0.9796750408D+00 EUMP2 =    -0.30018136296222D+03
 CCSD(T)
 CCSD(T)= -0.30023003143D+03

 Unable to determine electronic state:  an orbital has unidentified symmetry.
 Alpha  occ. eigenvalues --  -20.47586 -20.47586 -20.43241 -20.43241  -1.30752
 Alpha  occ. eigenvalues --   -1.30701  -0.93706  -0.93306  -0.50694  -0.50626
 Alpha  occ. eigenvalues --   -0.47271  -0.47181  -0.43839  -0.42585  -0.27750
 Alpha  occ. eigenvalues --   -0.27317  -0.25974  -0.25756
 Alpha virt. eigenvalues --    0.48764   0.55384   0.88449   0.91136   0.91333
 Alpha virt. eigenvalues --    0.91903   0.92841   0.93087   0.94338   0.99201
 Alpha virt. eigenvalues --    1.00191   1.07666   1.07930   1.13269   1.13653

 Mulliken charges and spin densities:
               1          2
     1  O   -0.303719   0.589245
     2  O   -0.196281   0.910755
     3  O   -0.196281   0.910755
     4  O   -0.303719   0.589245
 Sum of Mulliken charges =  -1.00000   3.00000

 Dipole moment (field-independent basis, Debye):
    X=             -0.0000    Y=             -0.0000    Z=             -0.0000  Tot=              0.0000
 Quadrupole moment (field-independent basis, Debye-Ang):
   XX=            -21.8750   YY=            -23.0399   ZZ=            -46.1241
   XY=              0.0000   XZ=              0.0000   YZ=              0.0000

 .1722748\CCSD=-300.1821496\CCSD(T)=-300.2300314\RMSD=9.723e-09\PG=D*H
 Normal termination of Gaussian 16 at Sun Jan 15 03:44:27 2023.
