 Gaussian 16, Revision A.03,
 Gaussian 16:  ES64L-G16RevA.03 25-Dec-2016

 ---------------------------------------------------------------
 #p ROCCSD(T)/cc-pVTZ Guess=Read SCF=(VeryTight,CDIIS,VShift=10)
 ---------------------------------------------------------------

 --------
 O2_O2_44
 --------
 Symbolic Z-matrix:
 Charge = -1 Multiplicity = 4

                         Standard orientation:
 ---------------------------------------------------------------------
 Center     Atomic      Atomic             Coordinates (Angstroms)
 Number     Number       Type             X           Y           Z
 ---------------------------------------------------------------------
      1          8           0        0.000000    0.000000    1.104065
      2          8           0        0.000000    0.000000    2.456445
      3          8           0        0.000000    0.000000   -2.456445
      4          8           0        0.000000    0.000000   -1.104065
 ---------------------------------------------------------------------

 SCF Done:  E(ROHF) =  -299.208101934     A.U. after   10 cycles
 E2 =    -0.9729422864D+00 EUMP2 =    -0.30018104422018D+03
 CCSD(T)
 CCSD(T)= -0.30023529073D+03

 Unable to determine electronic state:  an orbital has unidentified symmetry.
 Alpha  occ. eigenvalues --  -20.45492 -20.45492 -20.42088 -20.42087  -1.29594
 Alpha  occ. eigenvalues --   -1.29040  -0.93775  -0.90562  -0.49355  -0.48849
 Alpha  occ. eigenvalues --   -0.46173  -0.45340  -0.44808  -0.38216  -0.27374
 Alpha  occ. eigenvalues --   -0.25314  -0.24921  -0.23449
 Alpha virt. eigenvalues --    0.51342   0.59992   0.90375   0.92062   0.92423
 Alpha virt. eigenvalues --    0.92734   0.93338   0.96032   0.98077   0.99843
 Alpha virt. eigenvalues --    1.11875   1.13734   1.15104   1.16243   1.16319

 Mulliken charges and spin densities:
               1          2
     1  O   -0.264781   0.606690
     2  O   -0.235219   0.893310
     3  O   -0.235219   0.893310
     4  O   -0.264781   0.606690
 Sum of Mulliken charges =  -1.00000   3.00000

 Dipole moment (field-independent basis, Debye):
    X=             -0.0000    Y=              0.0000    Z=             -0.0000  Tot=              0.0000
 Quadrupole moment (field-independent basis, Debye-Ang):
   XX=            -21.8652   YY=            -23.0934   ZZ=            -40.1077
   XY=              0.0000   XZ=              0.0000   YZ=              0.0000

 0.1777376\CCSD=-300.187544\CCSD(T)=-300.2352907\RMSD=6.820e-09\PG=D*H
 Normal termination of Gaussian 16 at Sun Jan 15 01:06:49 2023.
