 Gaussian 16, Revision A.03,
 Gaussian 16:  ES64L-G16RevA.03 25-Dec-2016

 ---------------------------------------------------------------
 #p ROCCSD(T)/cc-pVTZ Guess=Read SCF=(VeryTight,CDIIS,VShift=10)
 ---------------------------------------------------------------

 ---------
 O2_O2_223
 ---------
 Symbolic Z-matrix:
 Charge = -1 Multiplicity = 4

                         Standard orientation:
 ---------------------------------------------------------------------
 Center     Atomic      Atomic             Coordinates (Angstroms)
 Number     Number       Type             X           Y           Z
 ---------------------------------------------------------------------
      1          8           0        0.000000    0.000000    2.371258
      2          8           0        0.000000    0.000000    3.723638
      3          8           0        0.000000    0.000000   -3.723638
      4          8           0        0.000000    0.000000   -2.371258
 ---------------------------------------------------------------------

 SCF Done:  E(ROHF) =  -299.196502014     A.U. after    7 cycles
 E2 =    -0.9844413964D+00 EUMP2 =    -0.30018094341039D+03
 CCSD(T)
 CCSD(T)= -0.30022467613D+03

 Unable to determine electronic state:  an orbital has unidentified symmetry.
 Alpha  occ. eigenvalues --  -20.49779 -20.49779 -20.44688 -20.44688  -1.32529
 Alpha  occ. eigenvalues --   -1.32528  -0.95343  -0.95338  -0.52569  -0.52568
 Alpha  occ. eigenvalues --   -0.49061  -0.49043  -0.45168  -0.45139  -0.29286
 Alpha  occ. eigenvalues --   -0.29279  -0.27735  -0.27605
 Alpha virt. eigenvalues --    0.49337   0.50089   0.89170   0.90036   0.90049
 Alpha virt. eigenvalues --    0.90058   0.92120   0.92161   0.96354   0.98537
 Alpha virt. eigenvalues --    1.01122   1.01266   1.01582   1.01844   1.11963

 Mulliken charges and spin densities:
               1          2
     1  O   -0.329002   0.567302
     2  O   -0.170998   0.932698
     3  O   -0.170998   0.932698
     4  O   -0.329002   0.567302
 Sum of Mulliken charges =  -1.00000   3.00000

 Dipole moment (field-independent basis, Debye):
    X=             -0.0000    Y=              0.0000    Z=             -0.0000  Tot=              0.0000
 Quadrupole moment (field-independent basis, Debye-Ang):
   XX=            -21.8685   YY=            -23.0061   ZZ=            -64.4090
   XY=              0.0000   XZ=              0.0000   YZ=              0.0000

 0464\CCSD=-300.1767176\CCSD(T)=-300.2246761\RMSD=5.827e-09\PG=D*H [C*(
 Normal termination of Gaussian 16 at Mon Jan 16 03:39:34 2023.
