 Gaussian 16, Revision A.03,
 Gaussian 16:  ES64L-G16RevA.03 25-Dec-2016

 ---------------------------------------------------------------
 #p ROCCSD(T)/cc-pVTZ Guess=Read SCF=(VeryTight,CDIIS,VShift=10)
 ---------------------------------------------------------------

 ---------
 O2_O2_229
 ---------
 Symbolic Z-matrix:
 Charge = -1 Multiplicity = 4

                         Standard orientation:
 ---------------------------------------------------------------------
 Center     Atomic      Atomic             Coordinates (Angstroms)
 Number     Number       Type             X           Y           Z
 ---------------------------------------------------------------------
      1          8           0        0.000000    0.000000    2.413733
      2          8           0        0.000000    0.000000    3.766113
      3          8           0        0.000000    0.000000   -3.766113
      4          8           0        0.000000    0.000000   -2.413733
 ---------------------------------------------------------------------

 SCF Done:  E(ROHF) =  -299.196452918     A.U. after    7 cycles
 E2 =    -0.9845885333D+00 EUMP2 =    -0.30018104145174D+03
 CCSD(T)
 CCSD(T)= -0.30022462840D+03

 Unable to determine electronic state:  an orbital has unidentified symmetry.
 Alpha  occ. eigenvalues --  -20.49856 -20.49856 -20.44746 -20.44746  -1.32595
 Alpha  occ. eigenvalues --   -1.32595  -0.95410  -0.95406  -0.52638  -0.52638
 Alpha  occ. eigenvalues --   -0.49128  -0.49109  -0.45234  -0.45211  -0.29350
 Alpha  occ. eigenvalues --   -0.29345  -0.27801  -0.27671
 Alpha virt. eigenvalues --    0.49338   0.49949   0.89204   0.89912   0.89988
 Alpha virt. eigenvalues --    0.89995   0.92060   0.92095   0.96470   0.98198
 Alpha virt. eigenvalues --    1.01070   1.01180   1.01530   1.01760   1.11899

 Mulliken charges and spin densities:
               1          2
     1  O   -0.329751   0.566628
     2  O   -0.170249   0.933372
     3  O   -0.170249   0.933372
     4  O   -0.329751   0.566628
 Sum of Mulliken charges =  -1.00000   3.00000

 Dipole moment (field-independent basis, Debye):
    X=             -0.0000    Y=              0.0000    Z=             -0.0000  Tot=              0.0000
 Quadrupole moment (field-independent basis, Debye-Ang):
   XX=            -21.8684   YY=            -23.0059   ZZ=            -65.5143
   XY=              0.0000   XZ=              0.0000   YZ=              0.0000

 670013\CCSD=-300.1766646\CCSD(T)=-300.2246284\RMSD=5.463e-09\PG=D*H [C
 Normal termination of Gaussian 16 at Mon Jan 16 03:46:48 2023.
