 Gaussian 16, Revision A.03,
 Gaussian 16:  ES64L-G16RevA.03 25-Dec-2016

 ---------------------------------------------------------------
 #p ROCCSD(T)/cc-pVTZ Guess=Read SCF=(VeryTight,CDIIS,VShift=10)
 ---------------------------------------------------------------

 ---------
 O2_O2_121
 ---------
 Symbolic Z-matrix:
 Charge = -1 Multiplicity = 4

                         Standard orientation:
 ---------------------------------------------------------------------
 Center     Atomic      Atomic             Coordinates (Angstroms)
 Number     Number       Type             X           Y           Z
 ---------------------------------------------------------------------
      1          8           0        0.000000    0.000000    1.649170
      2          8           0        0.000000    0.000000    3.001550
      3          8           0        0.000000    0.000000   -3.001550
      4          8           0        0.000000    0.000000   -1.649170
 ---------------------------------------------------------------------

 SCF Done:  E(ROHF) =  -299.199926016     A.U. after    8 cycles
 E2 =    -0.9807761441D+00 EUMP2 =    -0.30018070215994D+03
 CCSD(T)
 CCSD(T)= -0.30022824280D+03

 Unable to determine electronic state:  an orbital has unidentified symmetry.
 Alpha  occ. eigenvalues --  -20.48025 -20.48025 -20.43494 -20.43494  -1.31079
 Alpha  occ. eigenvalues --   -1.31053  -0.93960  -0.93751  -0.51044  -0.51008
 Alpha  occ. eigenvalues --   -0.47595  -0.47557  -0.43964  -0.43214  -0.27989
 Alpha  occ. eigenvalues --   -0.27739  -0.26248  -0.26181
 Alpha virt. eigenvalues --    0.48287   0.54378   0.86176   0.91177   0.91348
 Alpha virt. eigenvalues --    0.91535   0.92930   0.93147   0.93882   1.00071
 Alpha virt. eigenvalues --    1.00826   1.05670   1.06015   1.13014   1.13344

 Mulliken charges and spin densities:
               1          2
     1  O   -0.309725   0.584555
     2  O   -0.190275   0.915445
     3  O   -0.190275   0.915445
     4  O   -0.309725   0.584555
 Sum of Mulliken charges =  -1.00000   3.00000

 Dipole moment (field-independent basis, Debye):
    X=             -0.0000    Y=              0.0000    Z=             -0.0000  Tot=              0.0000
 Quadrupole moment (field-independent basis, Debye-Ang):
   XX=            -21.8738   YY=            -23.0278   ZZ=            -48.3931
   XY=              0.0000   XZ=              0.0000   YZ=              0.0000

 .1705023\CCSD=-300.1803504\CCSD(T)=-300.2282428\RMSD=6.671e-09\PG=D*H
 Normal termination of Gaussian 16 at Sun Jan 15 04:33:28 2023.
