 Gaussian 16, Revision A.03,
 Gaussian 16:  ES64L-G16RevA.03 25-Dec-2016

 ---------------------------------------------------------------
 #p ROCCSD(T)/cc-pVTZ Guess=Read SCF=(VeryTight,CDIIS,VShift=10)
 ---------------------------------------------------------------

 ---------
 O2_O2_175
 ---------
 Symbolic Z-matrix:
 Charge = -1 Multiplicity = 4

                         Standard orientation:
 ---------------------------------------------------------------------
 Center     Atomic      Atomic             Coordinates (Angstroms)
 Number     Number       Type             X           Y           Z
 ---------------------------------------------------------------------
      1          8           0        0.000000    0.000000    2.031452
      2          8           0        0.000000    0.000000    3.383832
      3          8           0        0.000000    0.000000   -3.383832
      4          8           0        0.000000    0.000000   -2.031452
 ---------------------------------------------------------------------

 SCF Done:  E(ROHF) =  -299.197256461     A.U. after    8 cycles
 E2 =    -0.9830501759D+00 EUMP2 =    -0.30018030663730D+03
 CCSD(T)
 CCSD(T)= -0.30022543936D+03

 Unable to determine electronic state:  an orbital has unidentified symmetry.
 Alpha  occ. eigenvalues --  -20.49073 -20.49073 -20.44172 -20.44172  -1.31925
 Alpha  occ. eigenvalues --   -1.31922  -0.94746  -0.94716  -0.51937  -0.51932
 Alpha  occ. eigenvalues --   -0.48452  -0.48439  -0.44594  -0.44442  -0.28716
 Alpha  occ. eigenvalues --   -0.28674  -0.27127  -0.27023
 Alpha virt. eigenvalues --    0.48831   0.51718   0.87740   0.90574   0.90638
 Alpha virt. eigenvalues --    0.91063   0.92611   0.92796   0.94433   1.01309
 Alpha virt. eigenvalues --    1.01797   1.02351   1.02875   1.04602   1.12543

 Mulliken charges and spin densities:
               1          2
     1  O   -0.321805   0.573847
     2  O   -0.178195   0.926153
     3  O   -0.178195   0.926153
     4  O   -0.321805   0.573847
 Sum of Mulliken charges =  -1.00000   3.00000

 Dipole moment (field-independent basis, Debye):
    X=             -0.0000    Y=              0.0000    Z=             -0.0000  Tot=              0.0000
 Quadrupole moment (field-independent basis, Debye-Ang):
   XX=            -21.8705   YY=            -23.0098   ZZ=            -56.2153
   XY=              0.0000   XZ=              0.0000   YZ=              0.0000

 00.1677784\CCSD=-300.1775241\CCSD(T)=-300.2254394\RMSD=3.823e-09\PG=D*
 Normal termination of Gaussian 16 at Sun Jan 15 07:01:17 2023.
