 Gaussian 16, Revision A.03,
 Gaussian 16:  ES64L-G16RevA.03 25-Dec-2016

 ---------------------------------------------------------------
 #p ROCCSD(T)/cc-pVTZ Guess=Read SCF=(VeryTight,CDIIS,VShift=10)
 ---------------------------------------------------------------

 --------
 O2_O2_80
 --------
 Symbolic Z-matrix:
 Charge = -1 Multiplicity = 4

                         Standard orientation:
 ---------------------------------------------------------------------
 Center     Atomic      Atomic             Coordinates (Angstroms)
 Number     Number       Type             X           Y           Z
 ---------------------------------------------------------------------
      1          8           0        0.000000    0.000000    1.358919
      2          8           0        0.000000    0.000000    2.711299
      3          8           0        0.000000    0.000000   -2.711299
      4          8           0        0.000000    0.000000   -1.358919
 ---------------------------------------------------------------------

 SCF Done:  E(ROHF) =  -299.204787330     A.U. after   11 cycles
 E2 =    -0.9777937709D+00 EUMP2 =    -0.30018258110109D+03
 CCSD(T)
 CCSD(T)= -0.30023301878D+03

 Unable to determine electronic state:  an orbital has unidentified symmetry.
 Alpha  occ. eigenvalues --  -20.46923 -20.46923 -20.42882 -20.42882  -1.30303
 Alpha  occ. eigenvalues --   -1.30176  -0.93462  -0.92559  -0.50204  -0.50055
 Alpha  occ. eigenvalues --   -0.46833  -0.46607  -0.43862  -0.41458  -0.27487
 Alpha  occ. eigenvalues --   -0.26630  -0.25641  -0.25074
 Alpha virt. eigenvalues --    0.49753   0.56841   0.90738   0.91483   0.92418
 Alpha virt. eigenvalues --    0.92557   0.92905   0.94871   0.94964   0.98139
 Alpha virt. eigenvalues --    0.99546   1.10860   1.11029   1.13530   1.14073

 Mulliken charges and spin densities:
               1          2
     1  O   -0.293105   0.596165
     2  O   -0.206895   0.903835
     3  O   -0.206895   0.903835
     4  O   -0.293105   0.596165
 Sum of Mulliken charges =  -1.00000   3.00000

 Dipole moment (field-independent basis, Debye):
    X=             -0.0000    Y=              0.0000    Z=              0.0000  Tot=              0.0000
 Quadrupole moment (field-independent basis, Debye-Ang):
   XX=            -21.8759   YY=            -23.0606   ZZ=            -43.4883
   XY=              0.0000   XZ=              0.0000   YZ=              0.0000

 0.1752871\CCSD=-300.1851721\CCSD(T)=-300.2330188\RMSD=3.913e-09\PG=D*H
 Normal termination of Gaussian 16 at Sun Jan 15 02:42:22 2023.
