 Gaussian 16, Revision A.03,
 Gaussian 16:  ES64L-G16RevA.03 25-Dec-2016

 ---------------------------------------------------------------
 #p ROCCSD(T)/cc-pVTZ Guess=Read SCF=(VeryTight,CDIIS,VShift=10)
 ---------------------------------------------------------------

 --------
 O2_O2_76
 --------
 Symbolic Z-matrix:
 Charge = -1 Multiplicity = 4

                         Standard orientation:
 ---------------------------------------------------------------------
 Center     Atomic      Atomic             Coordinates (Angstroms)
 Number     Number       Type             X           Y           Z
 ---------------------------------------------------------------------
      1          8           0        0.000000    0.000000    1.330602
      2          8           0        0.000000    0.000000    2.682982
      3          8           0        0.000000    0.000000   -2.682982
      4          8           0        0.000000    0.000000   -1.330602
 ---------------------------------------------------------------------

 SCF Done:  E(ROHF) =  -299.205393785     A.U. after   11 cycles
 E2 =    -0.9773897191D+00 EUMP2 =    -0.30018278350370D+03
 CCSD(T)
 CCSD(T)= -0.30023357424D+03

 Unable to determine electronic state:  an orbital has unidentified symmetry.
 Alpha  occ. eigenvalues --  -20.46793 -20.46793 -20.42813 -20.42812  -1.30222
 Alpha  occ. eigenvalues --   -1.30073  -0.93440  -0.92399  -0.50114  -0.49944
 Alpha  occ. eigenvalues --   -0.46756  -0.46493  -0.43898  -0.41209  -0.27450
 Alpha  occ. eigenvalues --   -0.26487  -0.25589  -0.24934
 Alpha virt. eigenvalues --    0.49940   0.57125   0.90673   0.91511   0.92507
 Alpha virt. eigenvalues --    0.92513   0.92910   0.95077   0.96356   0.98005
 Alpha virt. eigenvalues --    0.99485   1.11464   1.11619   1.13568   1.14149

 Mulliken charges and spin densities:
               1          2
     1  O   -0.290810   0.597445
     2  O   -0.209190   0.902555
     3  O   -0.209190   0.902555
     4  O   -0.290810   0.597445
 Sum of Mulliken charges =  -1.00000   3.00000

 Dipole moment (field-independent basis, Debye):
    X=             -0.0000    Y=              0.0000    Z=              0.0000  Tot=              0.0000
 Quadrupole moment (field-independent basis, Debye-Ang):
   XX=            -21.8759   YY=            -23.0647   ZZ=            -43.0628
   XY=              0.0000   XZ=              0.0000   YZ=              0.0000

 0.1758542\CCSD=-300.1857371\CCSD(T)=-300.2335742\RMSD=3.449e-09\PG=D*H
 Normal termination of Gaussian 16 at Sun Jan 15 02:32:16 2023.
