 Gaussian 16, Revision A.03,
 Gaussian 16:  ES64L-G16RevA.03 25-Dec-2016

 ---------------------------------------------------------------
 #p ROCCSD(T)/cc-pVTZ Guess=Read SCF=(VeryTight,CDIIS,VShift=10)
 ---------------------------------------------------------------

 --------
 O2_O2_26
 --------
 Symbolic Z-matrix:
 Charge = -1 Multiplicity = 4

                         Standard orientation:
 ---------------------------------------------------------------------
 Center     Atomic      Atomic             Coordinates (Angstroms)
 Number     Number       Type             X           Y           Z
 ---------------------------------------------------------------------
      1          8           0        0.000000    0.000000    0.976637
      2          8           0        0.000000    0.000000    2.329017
      3          8           0        0.000000    0.000000   -2.329017
      4          8           0        0.000000    0.000000   -0.976637
 ---------------------------------------------------------------------

 SCF Done:  E(ROHF) =  -299.200729350     A.U. after    9 cycles
 E2 =    -0.9693653167D+00 EUMP2 =    -0.30017009466643D+03
 CCSD(T)
 CCSD(T)= -0.30022683375D+03

 Unable to determine electronic state:  an orbital has unidentified symmetry.
 Alpha  occ. eigenvalues --  -20.44412 -20.44412 -20.41432 -20.41430  -1.29364
 Alpha  occ. eigenvalues --   -1.28183  -0.94860  -0.88806  -0.48945  -0.47989
 Alpha  occ. eigenvalues --   -0.46054  -0.45993  -0.44390  -0.35141  -0.27676
 Alpha  occ. eigenvalues --   -0.25386  -0.23504  -0.22162
 Alpha virt. eigenvalues --    0.51982   0.62442   0.90429   0.91985   0.92774
 Alpha virt. eigenvalues --    0.93629   0.93893   0.96667   0.99363   1.00922
 Alpha virt. eigenvalues --    1.13635   1.14228   1.18573   1.18617   1.22191

 Mulliken charges and spin densities:
               1          2
     1  O   -0.242625   0.608024
     2  O   -0.257375   0.891976
     3  O   -0.257375   0.891976
     4  O   -0.242625   0.608024
 Sum of Mulliken charges =  -1.00000   3.00000

 Dipole moment (field-independent basis, Debye):
    X=             -0.0000    Y=             -0.0000    Z=              0.0000  Tot=              0.0000
 Quadrupole moment (field-independent basis, Debye-Ang):
   XX=            -21.8311   YY=            -23.0840   ZZ=            -38.9411
   XY=              0.0000   XZ=              0.0000   YZ=              0.0000

 0.1693626\CCSD=-300.1790257\CCSD(T)=-300.2268338\RMSD=3.255e-09\PG=D*H
 Normal termination of Gaussian 16 at Sun Jan 15 00:18:39 2023.
