 Gaussian 16, Revision A.03,
 Gaussian 16:  ES64L-G16RevA.03 25-Dec-2016

 ---------------------------------------------------------------
 #p ROCCSD(T)/cc-pVTZ Guess=Read SCF=(VeryTight,CDIIS,VShift=10)
 ---------------------------------------------------------------

 --------
 O2_O2_14
 --------
 Symbolic Z-matrix:
 Charge = -1 Multiplicity = 4

                         Standard orientation:
 ---------------------------------------------------------------------
 Center     Atomic      Atomic             Coordinates (Angstroms)
 Number     Number       Type             X           Y           Z
 ---------------------------------------------------------------------
      1          8           0        0.000000    0.000000    0.891685
      2          8           0        0.000000    0.000000    2.244066
      3          8           0        0.000000    0.000000   -2.244066
      4          8           0        0.000000    0.000000   -0.891685
 ---------------------------------------------------------------------

 SCF Done:  E(ROHF) =  -299.183795335     A.U. after   10 cycles
 E2 =    -0.9668282454D+00 EUMP2 =    -0.30015062357986D+03
 CCSD(T)
 CCSD(T)= -0.30020911139D+03

 Unable to determine electronic state:  an orbital has unidentified symmetry.
 Alpha  occ. eigenvalues --  -20.43419 -20.43419 -20.40857 -20.40855  -1.29422
 Alpha  occ. eigenvalues --   -1.27423  -0.96381  -0.87157  -0.48750  -0.47276
 Alpha  occ. eigenvalues --   -0.47250  -0.46092  -0.43554  -0.32040  -0.28174
 Alpha  occ. eigenvalues --   -0.25602  -0.22205  -0.21010
 Alpha virt. eigenvalues --    0.52233   0.64736   0.90723   0.91663   0.93289
 Alpha virt. eigenvalues --    0.94335   0.94367   0.97178   1.00799   1.02130
 Alpha virt. eigenvalues --    1.13405   1.13999   1.19900   1.19920   1.26849

 Mulliken charges and spin densities:
               1          2
     1  O   -0.223258   0.604961
     2  O   -0.276742   0.895039
     3  O   -0.276742   0.895039
     4  O   -0.223258   0.604961
 Sum of Mulliken charges =  -1.00000   3.00000

 Dipole moment (field-independent basis, Debye):
    X=             -0.0000    Y=              0.0000    Z=             -0.0000  Tot=              0.0000
 Quadrupole moment (field-independent basis, Debye-Ang):
   XX=            -21.7783   YY=            -23.0477   ZZ=            -38.4841
   XY=              0.0000   XZ=              0.0000   YZ=              0.0000

 0.1516055\CCSD=-300.1610384\CCSD(T)=-300.2091114\RMSD=6.767e-09\PG=D*H
 Normal termination of Gaussian 16 at Sat Jan 14 23:44:44 2023.
