 Gaussian 16, Revision A.03,
 Gaussian 16:  ES64L-G16RevA.03 25-Dec-2016

 ---------------------------------------------------------------
 #p ROCCSD(T)/cc-pVTZ Guess=Read SCF=(VeryTight,CDIIS,VShift=10)
 ---------------------------------------------------------------

 --------
 O2_O2_54
 --------
 Symbolic Z-matrix:
 Charge = -1 Multiplicity = 4

                         Standard orientation:
 ---------------------------------------------------------------------
 Center     Atomic      Atomic             Coordinates (Angstroms)
 Number     Number       Type             X           Y           Z
 ---------------------------------------------------------------------
      1          8           0        0.000000    0.000000    1.174857
      2          8           0        0.000000    0.000000    2.527237
      3          8           0        0.000000    0.000000   -2.527237
      4          8           0        0.000000    0.000000   -1.174857
 ---------------------------------------------------------------------

 SCF Done:  E(ROHF) =  -299.208168708     A.U. after   10 cycles
 E2 =    -0.9745924521D+00 EUMP2 =    -0.30018276116033D+03
 CCSD(T)
 CCSD(T)= -0.30023579492D+03

 Unable to determine electronic state:  an orbital has unidentified symmetry.
 Alpha  occ. eigenvalues --  -20.45960 -20.45960 -20.42359 -20.42358  -1.29780
 Alpha  occ. eigenvalues --   -1.29413  -0.93530  -0.91271  -0.49597  -0.49238
 Alpha  occ. eigenvalues --   -0.46340  -0.45757  -0.44378  -0.39397  -0.27341
 Alpha  occ. eigenvalues --   -0.25511  -0.25362  -0.23998
 Alpha virt. eigenvalues --    0.50931   0.58951   0.90422   0.91795   0.92489
 Alpha virt. eigenvalues --    0.92642   0.93065   0.95719   0.97793   0.99549
 Alpha virt. eigenvalues --    1.06696   1.13715   1.14599   1.14806   1.14902

 Mulliken charges and spin densities:
               1          2
     1  O   -0.274654   0.604259
     2  O   -0.225346   0.895741
     3  O   -0.225346   0.895741
     4  O   -0.274654   0.604259
 Sum of Mulliken charges =  -1.00000   3.00000

 Dipole moment (field-independent basis, Debye):
    X=             -0.0000    Y=              0.0000    Z=             -0.0000  Tot=              0.0000
 Quadrupole moment (field-independent basis, Debye-Ang):
   XX=            -21.8720   YY=            -23.0870   ZZ=            -40.9323
   XY=              0.0000   XZ=              0.0000   YZ=              0.0000

 0.1781799\CCSD=-300.1880244\CCSD(T)=-300.2357949\RMSD=7.227e-09\PG=D*H
 Normal termination of Gaussian 16 at Sun Jan 15 01:32:02 2023.
