 Gaussian 16, Revision A.03,
 Gaussian 16:  ES64L-G16RevA.03 25-Dec-2016

 ---------------------------------------------------------------
 #p ROCCSD(T)/cc-pVTZ Guess=Read SCF=(VeryTight,CDIIS,VShift=10)
 ---------------------------------------------------------------

 --------
 O2_O2_11
 --------
 Symbolic Z-matrix:
 Charge = -1 Multiplicity = 4

                         Standard orientation:
 ---------------------------------------------------------------------
 Center     Atomic      Atomic             Coordinates (Angstroms)
 Number     Number       Type             X           Y           Z
 ---------------------------------------------------------------------
      1          8           0        0.000000    0.000000    0.870447
      2          8           0        0.000000    0.000000    2.222828
      3          8           0        0.000000    0.000000   -2.222828
      4          8           0        0.000000    0.000000   -0.870447
 ---------------------------------------------------------------------

 SCF Done:  E(ROHF) =  -299.176871527     A.U. after   10 cycles
 E2 =    -0.9662721165D+00 EUMP2 =    -0.30014314364376D+03
 CCSD(T)
 CCSD(T)= -0.30020203268D+03

 Unable to determine electronic state:  an orbital has unidentified symmetry.
 Alpha  occ. eigenvalues --  -20.43121 -20.43121 -20.40702 -20.40700  -1.29494
 Alpha  occ. eigenvalues --   -1.27201  -0.96910  -0.86670  -0.48726  -0.47632
 Alpha  occ. eigenvalues --   -0.47038  -0.46172  -0.43313  -0.31078  -0.28354
 Alpha  occ. eigenvalues --   -0.25683  -0.21824  -0.20675
 Alpha virt. eigenvalues --    0.52251   0.65428   0.90866   0.91561   0.93405
 Alpha virt. eigenvalues --    0.94458   0.94536   0.97322   1.01218   1.02496
 Alpha virt. eigenvalues --    1.13318   1.13882   1.20198   1.20211   1.27792

 Mulliken charges and spin densities:
               1          2
     1  O   -0.217391   0.603506
     2  O   -0.282609   0.896494
     3  O   -0.282609   0.896494
     4  O   -0.217391   0.603506
 Sum of Mulliken charges =  -1.00000   3.00000

 Dipole moment (field-independent basis, Debye):
    X=             -0.0000    Y=              0.0000    Z=             -0.0000  Tot=              0.0000
 Quadrupole moment (field-independent basis, Debye-Ang):
   XX=            -21.7591   YY=            -23.0327   ZZ=            -38.4261
   XY=              0.0000   XZ=              0.0000   YZ=              0.0000

 0.1444954\CCSD=-300.1538337\CCSD(T)=-300.2020327\RMSD=8.401e-09\PG=D*H
 Normal termination of Gaussian 16 at Sat Jan 14 23:36:35 2023.
