 Gaussian 16, Revision A.03,
 Gaussian 16:  ES64L-G16RevA.03 25-Dec-2016

 ---------------------------------------------------------------
 #p ROCCSD(T)/cc-pVTZ Guess=Read SCF=(VeryTight,CDIIS,VShift=10)
 ---------------------------------------------------------------

 ---------
 O2_O2_142
 ---------
 Symbolic Z-matrix:
 Charge = -1 Multiplicity = 4

                         Standard orientation:
 ---------------------------------------------------------------------
 Center     Atomic      Atomic             Coordinates (Angstroms)
 Number     Number       Type             X           Y           Z
 ---------------------------------------------------------------------
      1          8           0        0.000000    0.000000    1.797835
      2          8           0        0.000000    0.000000    3.150215
      3          8           0        0.000000    0.000000   -3.150215
      4          8           0        0.000000    0.000000   -1.797835
 ---------------------------------------------------------------------

 SCF Done:  E(ROHF) =  -299.198519742     A.U. after    8 cycles
 E2 =    -0.9817961773D+00 EUMP2 =    -0.30018031591947D+03
 CCSD(T)
 CCSD(T)= -0.30022677190D+03

 Unable to determine electronic state:  an orbital has unidentified symmetry.
 Alpha  occ. eigenvalues --  -20.48474 -20.48474 -20.43770 -20.43770  -1.31431
 Alpha  occ. eigenvalues --   -1.31420  -0.94273  -0.94175  -0.51418  -0.51400
 Alpha  occ. eigenvalues --   -0.47946  -0.47939  -0.44187  -0.43779  -0.28277
 Alpha  occ. eigenvalues --   -0.28148  -0.26595  -0.26562
 Alpha virt. eigenvalues --    0.48236   0.53281   0.85862   0.90955   0.91150
 Alpha virt. eigenvalues --    0.91400   0.92878   0.93383   0.93404   1.00824
 Alpha virt. eigenvalues --    1.01417   1.03961   1.04393   1.12420   1.13011

 Mulliken charges and spin densities:
               1          2
     1  O   -0.315165   0.579862
     2  O   -0.184835   0.920138
     3  O   -0.184835   0.920138
     4  O   -0.315165   0.579862
 Sum of Mulliken charges =  -1.00000   3.00000

 Dipole moment (field-independent basis, Debye):
    X=             -0.0000    Y=              0.0000    Z=             -0.0000  Tot=              0.0000
 Quadrupole moment (field-independent basis, Debye-Ang):
   XX=            -21.8725   YY=            -23.0180   ZZ=            -51.2561
   XY=              0.0000   XZ=              0.0000   YZ=              0.0000

 .169065\CCSD=-300.1788737\CCSD(T)=-300.2267719\RMSD=4.665e-09\PG=D*H [
 Normal termination of Gaussian 16 at Sun Jan 15 05:29:21 2023.
