 Gaussian 16, Revision A.03,
 Gaussian 16:  ES64L-G16RevA.03 25-Dec-2016

 ---------------------------------------------------------------
 #p ROCCSD(T)/cc-pVTZ Guess=Read SCF=(VeryTight,CDIIS,VShift=10)
 ---------------------------------------------------------------

 --------
 O2_O2_58
 --------
 Symbolic Z-matrix:
 Charge = -1 Multiplicity = 4

                         Standard orientation:
 ---------------------------------------------------------------------
 Center     Atomic      Atomic             Coordinates (Angstroms)
 Number     Number       Type             X           Y           Z
 ---------------------------------------------------------------------
      1          8           0        0.000000    0.000000    1.203175
      2          8           0        0.000000    0.000000    2.555555
      3          8           0        0.000000    0.000000   -2.555555
      4          8           0        0.000000    0.000000   -1.203175
 ---------------------------------------------------------------------

 SCF Done:  E(ROHF) =  -299.207842325     A.U. after   10 cycles
 E2 =    -0.9751824290D+00 EUMP2 =    -0.30018302475385D+03
 CCSD(T)
 CCSD(T)= -0.30023560905D+03

 Unable to determine electronic state:  an orbital has unidentified symmetry.
 Alpha  occ. eigenvalues --  -20.46129 -20.46129 -20.42453 -20.42453  -1.29858
 Alpha  occ. eigenvalues --   -1.29547  -0.93476  -0.91514  -0.49693  -0.49380
 Alpha  occ. eigenvalues --   -0.46412  -0.45907  -0.44248  -0.39795  -0.27346
 Alpha  occ. eigenvalues --   -0.25717  -0.25393  -0.24193
 Alpha virt. eigenvalues --    0.50759   0.58579   0.90452   0.91717   0.92443
 Alpha virt. eigenvalues --    0.92715   0.92960   0.95599   0.97753   0.99481
 Alpha virt. eigenvalues --    1.04603   1.13697   1.14210   1.14314   1.14504

 Mulliken charges and spin densities:
               1          2
     1  O   -0.278124   0.603112
     2  O   -0.221876   0.896888
     3  O   -0.221876   0.896888
     4  O   -0.278124   0.603112
 Sum of Mulliken charges =  -1.00000   3.00000

 Dipole moment (field-independent basis, Debye):
    X=             -0.0000    Y=             -0.0000    Z=              0.0000  Tot=              0.0000
 Quadrupole moment (field-independent basis, Debye-Ang):
   XX=            -21.8735   YY=            -23.0833   ZZ=            -41.2901
   XY=              0.0000   XZ=              0.0000   YZ=              0.0000

 0.1779705\CCSD=-300.187826\CCSD(T)=-300.235609\RMSD=8.373e-09\PG=D*H [
 Normal termination of Gaussian 16 at Sun Jan 15 01:42:02 2023.
