 Gaussian 16, Revision A.03,
 Gaussian 16:  ES64L-G16RevA.03 25-Dec-2016

 ---------------------------------------------------------------
 #p ROCCSD(T)/cc-pVTZ Guess=Read SCF=(VeryTight,CDIIS,VShift=10)
 ---------------------------------------------------------------

 ---------
 O2_O2_263
 ---------
 Symbolic Z-matrix:
 Charge = -1 Multiplicity = 4

                         Standard orientation:
 ---------------------------------------------------------------------
 Center     Atomic      Atomic             Coordinates (Angstroms)
 Number     Number       Type             X           Y           Z
 ---------------------------------------------------------------------
      1          8           0        0.000000    0.000000    2.654429
      2          8           0        0.000000    0.000000    4.006809
      3          8           0        0.000000    0.000000   -4.006809
      4          8           0        0.000000    0.000000   -2.654429
 ---------------------------------------------------------------------

 SCF Done:  E(ROHF) =  -299.196258995     A.U. after    7 cycles
 E2 =    -0.9853344921D+00 EUMP2 =    -0.30018159348752D+03
 CCSD(T)
 CCSD(T)= -0.30022444435D+03

 Unable to determine electronic state:  an orbital has unidentified symmetry.
 Alpha  occ. eigenvalues --  -20.50253 -20.50253 -20.45051 -20.45051  -1.32943
 Alpha  occ. eigenvalues --   -1.32942  -0.95756  -0.95755  -0.52999  -0.52999
 Alpha  occ. eigenvalues --   -0.49475  -0.49456  -0.45585  -0.45579  -0.29686
 Alpha  occ. eigenvalues --   -0.29685  -0.28142  -0.28010
 Alpha virt. eigenvalues --    0.49194   0.49356   0.89161   0.89354   0.89672
 Alpha virt. eigenvalues --    0.89673   0.91742   0.91762   0.96651   0.97049
 Alpha virt. eigenvalues --    1.00756   1.00776   1.01221   1.01369   1.11568

 Mulliken charges and spin densities:
               1          2
     1  O   -0.333493   0.563271
     2  O   -0.166507   0.936729
     3  O   -0.166507   0.936729
     4  O   -0.333493   0.563271
 Sum of Mulliken charges =  -1.00000   3.00000

 Dipole moment (field-independent basis, Debye):
    X=             -0.0000    Y=             -0.0000    Z=              0.0000  Tot=              0.0000
 Quadrupole moment (field-independent basis, Debye-Ang):
   XX=            -21.8676   YY=            -23.0056   ZZ=            -72.1193
   XY=              0.0000   XZ=              0.0000   YZ=              0.0000

 8296\CCSD=-300.1764526\CCSD(T)=-300.2244443\RMSD=5.717e-09\PG=D*H [C*(
 Normal termination of Gaussian 16 at Mon Jan 16 04:28:11 2023.
