 Gaussian 16, Revision A.03,
 Gaussian 16:  ES64L-G16RevA.03 25-Dec-2016

 ---------------------------------------------------------------
 #p ROCCSD(T)/cc-pVTZ Guess=Read SCF=(VeryTight,CDIIS,VShift=10)
 ---------------------------------------------------------------

 ---------
 O2_O2_260
 ---------
 Symbolic Z-matrix:
 Charge = -1 Multiplicity = 4

                         Standard orientation:
 ---------------------------------------------------------------------
 Center     Atomic      Atomic             Coordinates (Angstroms)
 Number     Number       Type             X           Y           Z
 ---------------------------------------------------------------------
      1          8           0        0.000000    0.000000    2.633191
      2          8           0        0.000000    0.000000    3.985571
      3          8           0        0.000000    0.000000   -3.985571
      4          8           0        0.000000    0.000000   -2.633191
 ---------------------------------------------------------------------

 SCF Done:  E(ROHF) =  -299.196271990     A.U. after    7 cycles
 E2 =    -0.9852740493D+00 EUMP2 =    -0.30018154603948D+03
 CCSD(T)
 CCSD(T)= -0.30022445646D+03

 Unable to determine electronic state:  an orbital has unidentified symmetry.
 Alpha  occ. eigenvalues --  -20.50221 -20.50221 -20.45025 -20.45025  -1.32914
 Alpha  occ. eigenvalues --   -1.32914  -0.95728  -0.95726  -0.52970  -0.52970
 Alpha  occ. eigenvalues --   -0.49447  -0.49428  -0.45556  -0.45549  -0.29658
 Alpha  occ. eigenvalues --   -0.29657  -0.28114  -0.27982
 Alpha virt. eigenvalues --    0.49213   0.49397   0.89175   0.89394   0.89698
 Alpha virt. eigenvalues --    0.89699   0.91768   0.91789   0.96658   0.97116
 Alpha virt. eigenvalues --    1.00784   1.00808   1.01249   1.01399   1.11595

 Mulliken charges and spin densities:
               1          2
     1  O   -0.333194   0.563538
     2  O   -0.166806   0.936462
     3  O   -0.166806   0.936462
     4  O   -0.333194   0.563538
 Sum of Mulliken charges =  -1.00000   3.00000

 Dipole moment (field-independent basis, Debye):
    X=             -0.0000    Y=             -0.0000    Z=             -0.0000  Tot=              0.0000
 Quadrupole moment (field-independent basis, Debye-Ang):
   XX=            -21.8676   YY=            -23.0056   ZZ=            -71.5131
   XY=              0.0000   XZ=              0.0000   YZ=              0.0000

 07\CCSD=-300.176467\CCSD(T)=-300.2244565\RMSD=5.665e-09\PG=D*H [C*(O1O
 Normal termination of Gaussian 16 at Mon Jan 16 04:24:42 2023.
