 Gaussian 16, Revision A.03,
 Gaussian 16:  ES64L-G16RevA.03 25-Dec-2016

 ---------------------------------------------------------------
 #p ROCCSD(T)/cc-pVTZ Guess=Read SCF=(VeryTight,CDIIS,VShift=10)
 ---------------------------------------------------------------

 ---------
 O2_O2_188
 ---------
 Symbolic Z-matrix:
 Charge = -1 Multiplicity = 4

                         Standard orientation:
 ---------------------------------------------------------------------
 Center     Atomic      Atomic             Coordinates (Angstroms)
 Number     Number       Type             X           Y           Z
 ---------------------------------------------------------------------
      1          8           0        0.000000    0.000000    2.123482
      2          8           0        0.000000    0.000000    3.475862
      3          8           0        0.000000    0.000000   -3.475862
      4          8           0        0.000000    0.000000   -2.123482
 ---------------------------------------------------------------------

 SCF Done:  E(ROHF) =  -299.196964343     A.U. after    8 cycles
 E2 =    -0.9834687618D+00 EUMP2 =    -0.30018043310485D+03
 CCSD(T)
 CCSD(T)= -0.30022513801D+03

 Unable to determine electronic state:  an orbital has unidentified symmetry.
 Alpha  occ. eigenvalues --  -20.49282 -20.49282 -20.44320 -20.44320  -1.32101
 Alpha  occ. eigenvalues --   -1.32099  -0.94919  -0.94901  -0.52122  -0.52119
 Alpha  occ. eigenvalues --   -0.48631  -0.48615  -0.44755  -0.44655  -0.28879
 Alpha  occ. eigenvalues --   -0.28854  -0.27307  -0.27192
 Alpha virt. eigenvalues --    0.49061   0.51186   0.88397   0.90426   0.90465
 Alpha virt. eigenvalues --    0.90815   0.92480   0.92600   0.95050   1.01324
 Alpha virt. eigenvalues --    1.01796   1.01960   1.02183   1.02506   1.12373

 Mulliken charges and spin densities:
               1          2
     1  O   -0.323992   0.571848
     2  O   -0.176008   0.928152
     3  O   -0.176008   0.928152
     4  O   -0.323992   0.571848
 Sum of Mulliken charges =  -1.00000   3.00000

 Dipole moment (field-independent basis, Debye):
    X=             -0.0000    Y=             -0.0000    Z=             -0.0000  Tot=              0.0000
 Quadrupole moment (field-independent basis, Debye-Ang):
   XX=            -21.8699   YY=            -23.0081   ZZ=            -58.3205
   XY=              0.0000   XZ=              0.0000   YZ=              0.0000

 00.1674886\CCSD=-300.177212\CCSD(T)=-300.225138\RMSD=3.553e-09\PG=D*H
 Normal termination of Gaussian 16 at Sun Jan 15 07:37:25 2023.
