 Gaussian 16, Revision A.03,
 Gaussian 16:  ES64L-G16RevA.03 25-Dec-2016

 ---------------------------------------------------------------
 #p ROCCSD(T)/cc-pVTZ Guess=Read SCF=(VeryTight,CDIIS,VShift=10)
 ---------------------------------------------------------------

 ---------
 O2_O2_141
 ---------
 Symbolic Z-matrix:
 Charge = -1 Multiplicity = 4

                         Standard orientation:
 ---------------------------------------------------------------------
 Center     Atomic      Atomic             Coordinates (Angstroms)
 Number     Number       Type             X           Y           Z
 ---------------------------------------------------------------------
      1          8           0        0.000000    0.000000    1.790756
      2          8           0        0.000000    0.000000    3.143136
      3          8           0        0.000000    0.000000   -3.143136
      4          8           0        0.000000    0.000000   -1.790756
 ---------------------------------------------------------------------

 SCF Done:  E(ROHF) =  -299.198573787     A.U. after    8 cycles
 E2 =    -0.9817524960D+00 EUMP2 =    -0.30018032628320D+03
 CCSD(T)
 CCSD(T)= -0.30022682901D+03

 Unable to determine electronic state:  an orbital has unidentified symmetry.
 Alpha  occ. eigenvalues --  -20.48453 -20.48453 -20.43758 -20.43757  -1.31415
 Alpha  occ. eigenvalues --   -1.31403  -0.94259  -0.94156  -0.51401  -0.51383
 Alpha  occ. eigenvalues --   -0.47930  -0.47922  -0.44175  -0.43755  -0.28263
 Alpha  occ. eigenvalues --   -0.28130  -0.26577  -0.26548
 Alpha virt. eigenvalues --    0.48227   0.53332   0.85834   0.90966   0.91167
 Alpha virt. eigenvalues --    0.91402   0.92883   0.93365   0.93425   1.00797
 Alpha virt. eigenvalues --    1.01395   1.04028   1.04456   1.12486   1.13027

 Mulliken charges and spin densities:
               1          2
     1  O   -0.314933   0.580068
     2  O   -0.185067   0.919932
     3  O   -0.185067   0.919932
     4  O   -0.314933   0.580068
 Sum of Mulliken charges =  -1.00000   3.00000

 Dipole moment (field-independent basis, Debye):
    X=             -0.0000    Y=              0.0000    Z=              0.0000  Tot=              0.0000
 Quadrupole moment (field-independent basis, Debye-Ang):
   XX=            -21.8725   YY=            -23.0184   ZZ=            -51.1146
   XY=              0.0000   XZ=              0.0000   YZ=              0.0000

 00.1691205\CCSD=-300.1789311\CCSD(T)=-300.226829\RMSD=4.734e-09\PG=D*H
 Normal termination of Gaussian 16 at Sun Jan 15 05:26:36 2023.
