 Gaussian 16, Revision A.03,
 Gaussian 16:  ES64L-G16RevA.03 25-Dec-2016

 ---------------------------------------------------------------
 #p ROCCSD(T)/cc-pVTZ Guess=Read SCF=(VeryTight,CDIIS,VShift=10)
 ---------------------------------------------------------------

 ---------
 O2_O2_112
 ---------
 Symbolic Z-matrix:
 Charge = -1 Multiplicity = 4

                         Standard orientation:
 ---------------------------------------------------------------------
 Center     Atomic      Atomic             Coordinates (Angstroms)
 Number     Number       Type             X           Y           Z
 ---------------------------------------------------------------------
      1          8           0        0.000000    0.000000    1.585456
      2          8           0        0.000000    0.000000    2.937836
      3          8           0        0.000000    0.000000   -2.937836
      4          8           0        0.000000    0.000000   -1.585456
 ---------------------------------------------------------------------

 SCF Done:  E(ROHF) =  -299.200734041     A.U. after    8 cycles
 E2 =    -0.9802574890D+00 EUMP2 =    -0.30018099153046D+03
 CCSD(T)
 CCSD(T)= -0.30022907082D+03

 Unable to determine electronic state:  an orbital has unidentified symmetry.
 Alpha  occ. eigenvalues --  -20.47813 -20.47813 -20.43369 -20.43369  -1.30918
 Alpha  occ. eigenvalues --   -1.30882  -0.93830  -0.93540  -0.50873  -0.50823
 Alpha  occ. eigenvalues --   -0.47435  -0.47375  -0.43891  -0.42920  -0.27868
 Alpha  occ. eigenvalues --   -0.27538  -0.26111  -0.25978
 Alpha virt. eigenvalues --    0.48479   0.54871   0.87046   0.91260   0.91260
 Alpha virt. eigenvalues --    0.91715   0.92903   0.93107   0.94105   0.99652
 Alpha virt. eigenvalues --    1.00512   1.06605   1.06910   1.13148   1.13496

 Mulliken charges and spin densities:
               1          2
     1  O   -0.306921   0.586818
     2  O   -0.193079   0.913182
     3  O   -0.193079   0.913182
     4  O   -0.306921   0.586818
 Sum of Mulliken charges =  -1.00000   3.00000

 Dipole moment (field-independent basis, Debye):
    X=             -0.0000    Y=             -0.0000    Z=              0.0000  Tot=              0.0000
 Quadrupole moment (field-independent basis, Debye-Ang):
   XX=            -21.8744   YY=            -23.0334   ZZ=            -47.2370
   XY=              0.0000   XZ=              0.0000   YZ=              0.0000

 .1713197\CCSD=-300.1811824\CCSD(T)=-300.2290708\RMSD=7.985e-09\PG=D*H
 Normal termination of Gaussian 16 at Sun Jan 15 04:10:11 2023.
