 Gaussian 16, Revision A.03,
 Gaussian 16:  ES64L-G16RevA.03 25-Dec-2016

 ---------------------------------------------------------------
 #p ROCCSD(T)/cc-pVTZ Guess=Read SCF=(VeryTight,CDIIS,VShift=10)
 ---------------------------------------------------------------

 ---------
 O2_O2_194
 ---------
 Symbolic Z-matrix:
 Charge = -1 Multiplicity = 4

                         Standard orientation:
 ---------------------------------------------------------------------
 Center     Atomic      Atomic             Coordinates (Angstroms)
 Number     Number       Type             X           Y           Z
 ---------------------------------------------------------------------
      1          8           0        0.000000    0.000000    2.165958
      2          8           0        0.000000    0.000000    3.518338
      3          8           0        0.000000    0.000000   -3.518338
      4          8           0        0.000000    0.000000   -2.165958
 ---------------------------------------------------------------------

 SCF Done:  E(ROHF) =  -299.196856517     A.U. after    8 cycles
 E2 =    -0.9836506494D+00 EUMP2 =    -0.30018050716622D+03
 CCSD(T)
 CCSD(T)= -0.30022502835D+03

 Unable to determine electronic state:  an orbital has unidentified symmetry.
 Alpha  occ. eigenvalues --  -20.49373 -20.49373 -20.44387 -20.44387  -1.32179
 Alpha  occ. eigenvalues --   -1.32178  -0.94996  -0.94982  -0.52204  -0.52201
 Alpha  occ. eigenvalues --   -0.48710  -0.48693  -0.44828  -0.44747  -0.28953
 Alpha  occ. eigenvalues --   -0.28932  -0.27386  -0.27267
 Alpha virt. eigenvalues --    0.49145   0.50963   0.88624   0.90358   0.90389
 Alpha virt. eigenvalues --    0.90687   0.92418   0.92517   0.95334   1.01294
 Alpha virt. eigenvalues --    1.01309   1.01776   1.01810   1.02364   1.12297

 Mulliken charges and spin densities:
               1          2
     1  O   -0.324936   0.570987
     2  O   -0.175064   0.929013
     3  O   -0.175064   0.929013
     4  O   -0.324936   0.570987
 Sum of Mulliken charges =  -1.00000   3.00000

 Dipole moment (field-independent basis, Debye):
    X=             -0.0000    Y=             -0.0000    Z=             -0.0000  Tot=              0.0000
 Quadrupole moment (field-independent basis, Debye-Ang):
   XX=            -21.8696   YY=            -23.0076   ZZ=            -59.3208
   XY=              0.0000   XZ=              0.0000   YZ=              0.0000

 00.1673833\CCSD=-300.1770969\CCSD(T)=-300.2250284\RMSD=3.352e-09\PG=D*
 Normal termination of Gaussian 16 at Sun Jan 15 07:53:30 2023.
