 Gaussian 16, Revision A.03,
 Gaussian 16:  ES64L-G16RevA.03 25-Dec-2016

 ---------------------------------------------------------------
 #p ROCCSD(T)/cc-pVTZ Guess=Read SCF=(VeryTight,CDIIS,VShift=10)
 ---------------------------------------------------------------

 ---------
 O2_O2_128
 ---------
 Symbolic Z-matrix:
 Charge = -1 Multiplicity = 4

                         Standard orientation:
 ---------------------------------------------------------------------
 Center     Atomic      Atomic             Coordinates (Angstroms)
 Number     Number       Type             X           Y           Z
 ---------------------------------------------------------------------
      1          8           0        0.000000    0.000000    1.698725
      2          8           0        0.000000    0.000000    3.051105
      3          8           0        0.000000    0.000000   -3.051105
      4          8           0        0.000000    0.000000   -1.698725
 ---------------------------------------------------------------------

 SCF Done:  E(ROHF) =  -299.199388938     A.U. after    8 cycles
 E2 =    -0.9811424678D+00 EUMP2 =    -0.30018053140554D+03
 CCSD(T)
 CCSD(T)= -0.30022768522D+03

 Unable to determine electronic state:  an orbital has unidentified symmetry.
 Alpha  occ. eigenvalues --  -20.48182 -20.48182 -20.43588 -20.43588  -1.31199
 Alpha  occ. eigenvalues --   -1.31180  -0.94064  -0.93901  -0.51173  -0.51144
 Alpha  occ. eigenvalues --   -0.47715  -0.47690  -0.44032  -0.43419  -0.28085
 Alpha  occ. eigenvalues --   -0.27884  -0.26354  -0.26328
 Alpha virt. eigenvalues --    0.48209   0.54005   0.85832   0.91106   0.91390
 Alpha virt. eigenvalues --    0.91401   0.92928   0.93200   0.93715   1.00361
 Alpha virt. eigenvalues --    1.01050   1.05029   1.05404   1.12892   1.13230

 Mulliken charges and spin densities:
               1          2
     1  O   -0.311685   0.582904
     2  O   -0.188315   0.917096
     3  O   -0.188315   0.917096
     4  O   -0.311685   0.582904
 Sum of Mulliken charges =  -1.00000   3.00000

 Dipole moment (field-independent basis, Debye):
    X=             -0.0000    Y=             -0.0000    Z=              0.0000  Tot=              0.0000
 Quadrupole moment (field-independent basis, Debye-Ang):
   XX=            -21.8734   YY=            -23.0241   ZZ=            -49.3219
   XY=              0.0000   XZ=              0.0000   YZ=              0.0000

 00.1699551\CCSD=-300.1797906\CCSD(T)=-300.2276852\RMSD=5.866e-09\PG=D*
 Normal termination of Gaussian 16 at Sun Jan 15 04:51:34 2023.
