 Gaussian 16, Revision A.03,
 Gaussian 16:  ES64L-G16RevA.03 25-Dec-2016

 ---------------------------------------------------------------
 #p ROCCSD(T)/cc-pVTZ Guess=Read SCF=(VeryTight,CDIIS,VShift=10)
 ---------------------------------------------------------------

 ---------
 O2_O2_116
 ---------
 Symbolic Z-matrix:
 Charge = -1 Multiplicity = 4

                         Standard orientation:
 ---------------------------------------------------------------------
 Center     Atomic      Atomic             Coordinates (Angstroms)
 Number     Number       Type             X           Y           Z
 ---------------------------------------------------------------------
      1          8           0        0.000000    0.000000    1.613774
      2          8           0        0.000000    0.000000    2.966154
      3          8           0        0.000000    0.000000   -2.966154
      4          8           0        0.000000    0.000000   -1.613774
 ---------------------------------------------------------------------

 SCF Done:  E(ROHF) =  -299.200357693     A.U. after    8 cycles
 E2 =    -0.9804951865D+00 EUMP2 =    -0.30018085287994D+03
 CCSD(T)
 CCSD(T)= -0.30022868679D+03

 Unable to determine electronic state:  an orbital has unidentified symmetry.
 Alpha  occ. eigenvalues --  -20.47909 -20.47909 -20.43425 -20.43425  -1.30990
 Alpha  occ. eigenvalues --   -1.30959  -0.93887  -0.93636  -0.50950  -0.50907
 Alpha  occ. eigenvalues --   -0.47507  -0.47457  -0.43921  -0.43056  -0.27921
 Alpha  occ. eigenvalues --   -0.27629  -0.26172  -0.26071
 Alpha virt. eigenvalues --    0.48381   0.54650   0.86597   0.91224   0.91304
 Alpha virt. eigenvalues --    0.91634   0.92919   0.93122   0.94005   0.99844
 Alpha virt. eigenvalues --    1.00654   1.06174   1.06496   1.13091   1.13428

 Mulliken charges and spin densities:
               1          2
     1  O   -0.308211   0.585792
     2  O   -0.191789   0.914208
     3  O   -0.191789   0.914208
     4  O   -0.308211   0.585792
 Sum of Mulliken charges =  -1.00000   3.00000

 Dipole moment (field-independent basis, Debye):
    X=             -0.0000    Y=              0.0000    Z=              0.0000  Tot=              0.0000
 Quadrupole moment (field-independent basis, Debye-Ang):
   XX=            -21.8742   YY=            -23.0308   ZZ=            -47.7455
   XY=              0.0000   XZ=              0.0000   YZ=              0.0000

 0.1709399\CCSD=-300.1807964\CCSD(T)=-300.2286868\RMSD=7.355e-09\PG=D*H
 Normal termination of Gaussian 16 at Sun Jan 15 04:20:15 2023.
