 Gaussian 16, Revision A.03,
 Gaussian 16:  ES64L-G16RevA.03 25-Dec-2016

 ---------------------------------------------------------------
 #p ROCCSD(T)/cc-pVTZ Guess=Read SCF=(VeryTight,CDIIS,VShift=10)
 ---------------------------------------------------------------

 ---------
 O2_O2_231
 ---------
 Symbolic Z-matrix:
 Charge = -1 Multiplicity = 4

                         Standard orientation:
 ---------------------------------------------------------------------
 Center     Atomic      Atomic             Coordinates (Angstroms)
 Number     Number       Type             X           Y           Z
 ---------------------------------------------------------------------
      1          8           0        0.000000    0.000000    2.427892
      2          8           0        0.000000    0.000000    3.780272
      3          8           0        0.000000    0.000000   -3.780272
      4          8           0        0.000000    0.000000   -2.427892
 ---------------------------------------------------------------------

 SCF Done:  E(ROHF) =  -299.196437847     A.U. after    7 cycles
 E2 =    -0.9846364470D+00 EUMP2 =    -0.30018107429422D+03
 CCSD(T)
 CCSD(T)= -0.30022461386D+03

 Unable to determine electronic state:  an orbital has unidentified symmetry.
 Alpha  occ. eigenvalues --  -20.49882 -20.49882 -20.44765 -20.44765  -1.32617
 Alpha  occ. eigenvalues --   -1.32617  -0.95432  -0.95428  -0.52661  -0.52661
 Alpha  occ. eigenvalues --   -0.49150  -0.49131  -0.45256  -0.45235  -0.29371
 Alpha  occ. eigenvalues --   -0.29367  -0.27823  -0.27692
 Alpha virt. eigenvalues --    0.49336   0.49905   0.89212   0.89872   0.89969
 Alpha virt. eigenvalues --    0.89975   0.92041   0.92074   0.96501   0.98097
 Alpha virt. eigenvalues --    1.01052   1.01152   1.01513   1.01734   1.11879

 Mulliken charges and spin densities:
               1          2
     1  O   -0.329995   0.566409
     2  O   -0.170005   0.933591
     3  O   -0.170005   0.933591
     4  O   -0.329995   0.566409
 Sum of Mulliken charges =  -1.00000   3.00000

 Dipole moment (field-independent basis, Debye):
    X=             -0.0000    Y=             -0.0000    Z=             -0.0000  Tot=              0.0000
 Quadrupole moment (field-independent basis, Debye-Ang):
   XX=            -21.8683   YY=            -23.0059   ZZ=            -65.8868
   XY=              0.0000   XZ=              0.0000   YZ=              0.0000

 69876\CCSD=-300.1766483\CCSD(T)=-300.2246139\RMSD=5.390e-09\PG=D*H [C*
 Normal termination of Gaussian 16 at Mon Jan 16 03:49:13 2023.
