 Gaussian 16, Revision A.03,
 Gaussian 16:  ES64L-G16RevA.03 25-Dec-2016

 ---------------------------------------------------------------
 #p ROCCSD(T)/cc-pVTZ Guess=Read SCF=(VeryTight,CDIIS,VShift=10)
 ---------------------------------------------------------------

 ---------
 O2_O2_256
 ---------
 Symbolic Z-matrix:
 Charge = -1 Multiplicity = 4

                         Standard orientation:
 ---------------------------------------------------------------------
 Center     Atomic      Atomic             Coordinates (Angstroms)
 Number     Number       Type             X           Y           Z
 ---------------------------------------------------------------------
      1          8           0        0.000000    0.000000    2.604874
      2          8           0        0.000000    0.000000    3.957254
      3          8           0        0.000000    0.000000   -3.957254
      4          8           0        0.000000    0.000000   -2.604874
 ---------------------------------------------------------------------

 SCF Done:  E(ROHF) =  -299.196290278     A.U. after    7 cycles
 E2 =    -0.9851919687D+00 EUMP2 =    -0.30018148224693D+03
 CCSD(T)
 CCSD(T)= -0.30022447357D+03

 Unable to determine electronic state:  an orbital has unidentified symmetry.
 Alpha  occ. eigenvalues --  -20.50177 -20.50177 -20.44991 -20.44991  -1.32875
 Alpha  occ. eigenvalues --   -1.32875  -0.95689  -0.95687  -0.52929  -0.52929
 Alpha  occ. eigenvalues --   -0.49408  -0.49389  -0.45516  -0.45509  -0.29621
 Alpha  occ. eigenvalues --   -0.29619  -0.28077  -0.27944
 Alpha virt. eigenvalues --    0.49238   0.49455   0.89192   0.89449   0.89733
 Alpha virt. eigenvalues --    0.89735   0.91804   0.91826   0.96662   0.97212
 Alpha virt. eigenvalues --    1.00821   1.00850   1.01285   1.01441   1.11633

 Mulliken charges and spin densities:
               1          2
     1  O   -0.332787   0.563903
     2  O   -0.167213   0.936097
     3  O   -0.167213   0.936097
     4  O   -0.332787   0.563903
 Sum of Mulliken charges =  -1.00000   3.00000

 Dipole moment (field-independent basis, Debye):
    X=             -0.0000    Y=              0.0000    Z=             -0.0000  Tot=              0.0000
 Quadrupole moment (field-independent basis, Debye-Ang):
   XX=            -21.8677   YY=            -23.0057   ZZ=            -70.7120
   XY=              0.0000   XZ=              0.0000   YZ=              0.0000

 68564\CCSD=-300.1764872\CCSD(T)=-300.2244736\RMSD=5.583e-09\PG=D*H [C*
 Normal termination of Gaussian 16 at Mon Jan 16 04:20:01 2023.
