 Gaussian 16, Revision A.03,
 Gaussian 16:  ES64L-G16RevA.03 25-Dec-2016

 ---------------------------------------------------------------
 #p ROCCSD(T)/cc-pVTZ Guess=Read SCF=(VeryTight,CDIIS,VShift=10)
 ---------------------------------------------------------------

 --------
 O2_O2_16
 --------
 Symbolic Z-matrix:
 Charge = -1 Multiplicity = 4

                         Standard orientation:
 ---------------------------------------------------------------------
 Center     Atomic      Atomic             Coordinates (Angstroms)
 Number     Number       Type             X           Y           Z
 ---------------------------------------------------------------------
      1          8           0        0.000000    0.000000    0.905844
      2          8           0        0.000000    0.000000    2.258224
      3          8           0        0.000000    0.000000   -2.258224
      4          8           0        0.000000    0.000000   -0.905844
 ---------------------------------------------------------------------

 SCF Done:  E(ROHF) =  -299.187705873     A.U. after   10 cycles
 E2 =    -0.9672282285D+00 EUMP2 =    -0.30015493410190D+03
 CCSD(T)
 CCSD(T)= -0.30021314091D+03

 Unable to determine electronic state:  an orbital has unidentified symmetry.
 Alpha  occ. eigenvalues --  -20.43606 -20.43605 -20.40959 -20.40957  -1.29390
 Alpha  occ. eigenvalues --   -1.27563  -0.96065  -0.87464  -0.48773  -0.47385
 Alpha  occ. eigenvalues --   -0.47050  -0.46053  -0.43707  -0.32635  -0.28068
 Alpha  occ. eigenvalues --   -0.25555  -0.22445  -0.21222
 Alpha virt. eigenvalues --    0.52209   0.64304   0.90648   0.91724   0.93208
 Alpha virt. eigenvalues --    0.94248   0.94256   0.97086   1.00532   1.01900
 Alpha virt. eigenvalues --    1.13456   1.14064   1.19693   1.19717   1.26172

 Mulliken charges and spin densities:
               1          2
     1  O   -0.226898   0.605768
     2  O   -0.273102   0.894232
     3  O   -0.273102   0.894232
     4  O   -0.226898   0.605768
 Sum of Mulliken charges =  -1.00000   3.00000

 Dipole moment (field-independent basis, Debye):
    X=             -0.0000    Y=              0.0000    Z=              0.0000  Tot=              0.0000
 Quadrupole moment (field-independent basis, Debye-Ang):
   XX=            -21.7896   YY=            -23.0562   ZZ=            -38.5368
   XY=              0.0000   XZ=              0.0000   YZ=              0.0000

 .1556496\CCSD=-300.1651353\CCSD(T)=-300.2131409\RMSD=5.522e-09\PG=D*H
 Normal termination of Gaussian 16 at Sat Jan 14 23:50:00 2023.
