 Gaussian 16, Revision A.03,
 Gaussian 16:  ES64L-G16RevA.03 25-Dec-2016

 ---------------------------------------------------------------
 #p ROCCSD(T)/cc-pVTZ Guess=Read SCF=(VeryTight,CDIIS,VShift=10)
 ---------------------------------------------------------------

 ---------
 O2_O2_199
 ---------
 Symbolic Z-matrix:
 Charge = -1 Multiplicity = 4

                         Standard orientation:
 ---------------------------------------------------------------------
 Center     Atomic      Atomic             Coordinates (Angstroms)
 Number     Number       Type             X           Y           Z
 ---------------------------------------------------------------------
      1          8           0        0.000000    0.000000    2.201354
      2          8           0        0.000000    0.000000    3.553735
      3          8           0        0.000000    0.000000   -3.553735
      4          8           0        0.000000    0.000000   -2.201354
 ---------------------------------------------------------------------

 SCF Done:  E(ROHF) =  -299.196777500     A.U. after    8 cycles
 E2 =    -0.9837971371D+00 EUMP2 =    -0.30018057463685D+03
 CCSD(T)
 CCSD(T)= -0.30022494867D+03

 Unable to determine electronic state:  an orbital has unidentified symmetry.
 Alpha  occ. eigenvalues --  -20.49448 -20.49448 -20.44441 -20.44441  -1.32242
 Alpha  occ. eigenvalues --   -1.32241  -0.95059  -0.95047  -0.52270  -0.52268
 Alpha  occ. eigenvalues --   -0.48774  -0.48757  -0.44889  -0.44820  -0.29013
 Alpha  occ. eigenvalues --   -0.28996  -0.27450  -0.27328
 Alpha virt. eigenvalues --    0.49203   0.50788   0.88777   0.90303   0.90328
 Alpha virt. eigenvalues --    0.90575   0.92367   0.92450   0.95559   1.00650
 Alpha virt. eigenvalues --    1.01288   1.01697   1.01753   1.02256   1.12236

 Mulliken charges and spin densities:
               1          2
     1  O   -0.325693   0.570297
     2  O   -0.174307   0.929703
     3  O   -0.174307   0.929703
     4  O   -0.325693   0.570297
 Sum of Mulliken charges =  -1.00000   3.00000

 Dipole moment (field-independent basis, Debye):
    X=             -0.0000    Y=              0.0000    Z=             -0.0000  Tot=              0.0000
 Quadrupole moment (field-independent basis, Debye-Ang):
   XX=            -21.8694   YY=            -23.0072   ZZ=            -60.1680
   XY=              0.0000   XZ=              0.0000   YZ=              0.0000

 00.1673068\CCSD=-300.1770125\CCSD(T)=-300.2249487\RMSD=3.185e-09\PG=D*
 Normal termination of Gaussian 16 at Sun Jan 15 08:08:59 2023.
