 Gaussian 16, Revision A.03,
 Gaussian 16:  ES64L-G16RevA.03 25-Dec-2016

 ---------------------------------------------------------------
 #p ROCCSD(T)/cc-pVTZ Guess=Read SCF=(VeryTight,CDIIS,VShift=10)
 ---------------------------------------------------------------

 ---------
 O2_O2_158
 ---------
 Symbolic Z-matrix:
 Charge = -1 Multiplicity = 4

                         Standard orientation:
 ---------------------------------------------------------------------
 Center     Atomic      Atomic             Coordinates (Angstroms)
 Number     Number       Type             X           Y           Z
 ---------------------------------------------------------------------
      1          8           0        0.000000    0.000000    1.911104
      2          8           0        0.000000    0.000000    3.263484
      3          8           0        0.000000    0.000000   -3.263484
      4          8           0        0.000000    0.000000   -1.911104
 ---------------------------------------------------------------------

 SCF Done:  E(ROHF) =  -299.197794510     A.U. after    8 cycles
 E2 =    -0.9824444724D+00 EUMP2 =    -0.30018023898277D+03
 CCSD(T)
 CCSD(T)= -0.30022600440D+03

 Unable to determine electronic state:  an orbital has unidentified symmetry.
 Alpha  occ. eigenvalues --  -20.48778 -20.48778 -20.43970 -20.43970  -1.31679
 Alpha  occ. eigenvalues --   -1.31673  -0.94508  -0.94453  -0.51679  -0.51669
 Alpha  occ. eigenvalues --   -0.48199  -0.48194  -0.44381  -0.44127  -0.28493
 Alpha  occ. eigenvalues --   -0.28418  -0.26868  -0.26792
 Alpha virt. eigenvalues --    0.48484   0.52492   0.86661   0.90772   0.90888
 Alpha virt. eigenvalues --    0.91296   0.92766   0.93087   0.93771   1.01156
 Alpha virt. eigenvalues --    1.01682   1.03046   1.03530   1.08878   1.12777

 Mulliken charges and spin densities:
               1          2
     1  O   -0.318609   0.576762
     2  O   -0.181391   0.923238
     3  O   -0.181391   0.923238
     4  O   -0.318609   0.576762
 Sum of Mulliken charges =  -1.00000   3.00000

 Dipole moment (field-independent basis, Debye):
    X=             -0.0000    Y=              0.0000    Z=              0.0000  Tot=              0.0000
 Quadrupole moment (field-independent basis, Debye-Ang):
   XX=            -21.8715   YY=            -23.0132   ZZ=            -53.5910
   XY=              0.0000   XZ=              0.0000   YZ=              0.0000

 .1683226\CCSD=-300.1781\CCSD(T)=-300.2260044\RMSD=3.985e-09\PG=D*H [C*
 Normal termination of Gaussian 16 at Sun Jan 15 06:14:58 2023.
