 Gaussian 16, Revision A.03,
 Gaussian 16:  ES64L-G16RevA.03 25-Dec-2016

 ---------------------------------------------------------------
 #p ROCCSD(T)/cc-pVTZ Guess=Read SCF=(VeryTight,CDIIS,VShift=10)
 ---------------------------------------------------------------

 -------
 O2_O2_8
 -------
 Symbolic Z-matrix:
 Charge = -1 Multiplicity = 4

                         Standard orientation:
 ---------------------------------------------------------------------
 Center     Atomic      Atomic             Coordinates (Angstroms)
 Number     Number       Type             X           Y           Z
 ---------------------------------------------------------------------
      1          8           0        0.000000    0.000000    0.849210
      2          8           0        0.000000    0.000000    2.201590
      3          8           0        0.000000    0.000000   -2.201590
      4          8           0        0.000000    0.000000   -0.849210
 ---------------------------------------------------------------------

 SCF Done:  E(ROHF) =  -299.168492771     A.U. after   10 cycles
 E2 =    -0.9657937211D+00 EUMP2 =    -0.30013428649254D+03
 CCSD(T)
 CCSD(T)= -0.30019354113D+03

 Unable to determine electronic state:  an orbital has unidentified symmetry.
 Alpha  occ. eigenvalues --  -20.42798 -20.42798 -20.40547 -20.40545  -1.29603
 Alpha  occ. eigenvalues --   -1.26966  -0.97512  -0.86151  -0.48717  -0.48005
 Alpha  occ. eigenvalues --   -0.46812  -0.46285  -0.43056  -0.30026  -0.28562
 Alpha  occ. eigenvalues --   -0.25775  -0.21420  -0.20319
 Alpha virt. eigenvalues --    0.52241   0.66175   0.91050   0.91444   0.93511
 Alpha virt. eigenvalues --    0.94588   0.94690   0.97473   1.01653   1.02884
 Alpha virt. eigenvalues --    1.13217   1.13741   1.20482   1.20488   1.28654

 Mulliken charges and spin densities:
               1          2
     1  O   -0.210966   0.601747
     2  O   -0.289034   0.898253
     3  O   -0.289034   0.898253
     4  O   -0.210966   0.601747
 Sum of Mulliken charges =  -1.00000   3.00000

 Dipole moment (field-independent basis, Debye):
    X=             -0.0000    Y=             -0.0000    Z=             -0.0000  Tot=              0.0000
 Quadrupole moment (field-independent basis, Debye-Ang):
   XX=            -21.7369   YY=            -23.0147   ZZ=            -38.3959
   XY=              0.0000   XZ=              0.0000   YZ=              0.0000

 359583\CCSD=-300.1451799\CCSD(T)=-300.1935411\RMSD=9.326e-09\PG=D*H [C
 Normal termination of Gaussian 16 at Sat Jan 14 23:28:42 2023.
