 Gaussian 16, Revision A.03,
 Gaussian 16:  ES64L-G16RevA.03 25-Dec-2016

 ---------------------------------------------------------------
 #p ROCCSD(T)/cc-pVTZ Guess=Read SCF=(VeryTight,CDIIS,VShift=10)
 ---------------------------------------------------------------

 ---------
 O2_O2_196
 ---------
 Symbolic Z-matrix:
 Charge = -1 Multiplicity = 4

                         Standard orientation:
 ---------------------------------------------------------------------
 Center     Atomic      Atomic             Coordinates (Angstroms)
 Number     Number       Type             X           Y           Z
 ---------------------------------------------------------------------
      1          8           0        0.000000    0.000000    2.180117
      2          8           0        0.000000    0.000000    3.532497
      3          8           0        0.000000    0.000000   -3.532497
      4          8           0        0.000000    0.000000   -2.180117
 ---------------------------------------------------------------------

 SCF Done:  E(ROHF) =  -299.196823801     A.U. after    8 cycles
 E2 =    -0.9837097872D+00 EUMP2 =    -0.30018053358866D+03
 CCSD(T)
 CCSD(T)= -0.30022499529D+03

 Unable to determine electronic state:  an orbital has unidentified symmetry.
 Alpha  occ. eigenvalues --  -20.49403 -20.49403 -20.44408 -20.44408  -1.32205
 Alpha  occ. eigenvalues --   -1.32203  -0.95021  -0.95008  -0.52230  -0.52228
 Alpha  occ. eigenvalues --   -0.48735  -0.48719  -0.44853  -0.44776  -0.28977
 Alpha  occ. eigenvalues --   -0.28958  -0.27412  -0.27292
 Alpha virt. eigenvalues --    0.49169   0.50892   0.88689   0.90336   0.90365
 Alpha virt. eigenvalues --    0.90642   0.92398   0.92490   0.95426   1.01026
 Alpha virt. eigenvalues --    1.01301   1.01763   1.01768   1.02319   1.12272

 Mulliken charges and spin densities:
               1          2
     1  O   -0.325242   0.570708
     2  O   -0.174758   0.929292
     3  O   -0.174758   0.929292
     4  O   -0.325242   0.570708
 Sum of Mulliken charges =  -1.00000   3.00000

 Dipole moment (field-independent basis, Debye):
    X=             -0.0000    Y=              0.0000    Z=             -0.0000  Tot=              0.0000
 Quadrupole moment (field-independent basis, Debye-Ang):
   XX=            -21.8695   YY=            -23.0074   ZZ=            -59.6582
   XY=              0.0000   XZ=              0.0000   YZ=              0.0000

 00.1673516\CCSD=-300.177062\CCSD(T)=-300.2249953\RMSD=3.279e-09\PG=D*H
 Normal termination of Gaussian 16 at Sun Jan 15 07:58:43 2023.
