 Gaussian 16, Revision A.03,
 Gaussian 16:  ES64L-G16RevA.03 25-Dec-2016

 ---------------------------------------------------------------
 #p ROCCSD(T)/cc-pVTZ Guess=Read SCF=(VeryTight,CDIIS,VShift=10)
 ---------------------------------------------------------------

 --------
 O2_O2_57
 --------
 Symbolic Z-matrix:
 Charge = -1 Multiplicity = 4

                         Standard orientation:
 ---------------------------------------------------------------------
 Center     Atomic      Atomic             Coordinates (Angstroms)
 Number     Number       Type             X           Y           Z
 ---------------------------------------------------------------------
      1          8           0        0.000000    0.000000    1.196095
      2          8           0        0.000000    0.000000    2.548475
      3          8           0        0.000000    0.000000   -2.548475
      4          8           0        0.000000    0.000000   -1.196095
 ---------------------------------------------------------------------

 SCF Done:  E(ROHF) =  -299.207936829     A.U. after   10 cycles
 E2 =    -0.9750385871D+00 EUMP2 =    -0.30018297541591D+03
 CCSD(T)
 CCSD(T)= -0.30023567022D+03

 Unable to determine electronic state:  an orbital has unidentified symmetry.
 Alpha  occ. eigenvalues --  -20.46088 -20.46088 -20.42430 -20.42430  -1.29839
 Alpha  occ. eigenvalues --   -1.29514  -0.93488  -0.91455  -0.49669  -0.49345
 Alpha  occ. eigenvalues --   -0.46394  -0.45871  -0.44279  -0.39699  -0.27344
 Alpha  occ. eigenvalues --   -0.25667  -0.25384  -0.24146
 Alpha virt. eigenvalues --    0.50802   0.58670   0.90444   0.91735   0.92452
 Alpha virt. eigenvalues --    0.92698   0.92986   0.95628   0.97759   0.99496
 Alpha virt. eigenvalues --    1.05120   1.13702   1.14360   1.14462   1.14526

 Mulliken charges and spin densities:
               1          2
     1  O   -0.277281   0.603405
     2  O   -0.222719   0.896595
     3  O   -0.222719   0.896595
     4  O   -0.277281   0.603405
 Sum of Mulliken charges =  -1.00000   3.00000

 Dipole moment (field-independent basis, Debye):
    X=             -0.0000    Y=              0.0000    Z=             -0.0000  Tot=              0.0000
 Quadrupole moment (field-independent basis, Debye-Ang):
   XX=            -21.8732   YY=            -23.0843   ZZ=            -41.1993
   XY=              0.0000   XZ=              0.0000   YZ=              0.0000

 1780375\CCSD=-300.1878904\CCSD(T)=-300.2356702\RMSD=8.127e-09\PG=D*H [
 Normal termination of Gaussian 16 at Sun Jan 15 01:39:33 2023.
