 Gaussian 16, Revision A.03,
 Gaussian 16:  ES64L-G16RevA.03 25-Dec-2016

 ---------------------------------------------------------------
 #p ROCCSD(T)/cc-pVTZ Guess=Read SCF=(VeryTight,CDIIS,VShift=10)
 ---------------------------------------------------------------

 --------
 O2_O2_84
 --------
 Symbolic Z-matrix:
 Charge = -1 Multiplicity = 4

                         Standard orientation:
 ---------------------------------------------------------------------
 Center     Atomic      Atomic             Coordinates (Angstroms)
 Number     Number       Type             X           Y           Z
 ---------------------------------------------------------------------
      1          8           0        0.000000    0.000000    1.387236
      2          8           0        0.000000    0.000000    2.739616
      3          8           0        0.000000    0.000000   -2.739616
      4          8           0        0.000000    0.000000   -1.387236
 ---------------------------------------------------------------------

 SCF Done:  E(ROHF) =  -299.204191518     A.U. after   11 cycles
 E2 =    -0.9781716406D+00 EUMP2 =    -0.30018236315875D+03
 CCSD(T)
 CCSD(T)= -0.30023246233D+03

 Unable to determine electronic state:  an orbital has unidentified symmetry.
 Alpha  occ. eigenvalues --  -20.47049 -20.47048 -20.42949 -20.42948  -1.30383
 Alpha  occ. eigenvalues --   -1.30275  -0.93493  -0.92709  -0.50293  -0.50163
 Alpha  occ. eigenvalues --   -0.46911  -0.46716  -0.43837  -0.41689  -0.27527
 Alpha  occ. eigenvalues --   -0.26765  -0.25696  -0.25207
 Alpha virt. eigenvalues --    0.49567   0.56567   0.90808   0.91458   0.92325
 Alpha virt. eigenvalues --    0.92611   0.92781   0.93624   0.94853   0.98295
 Alpha virt. eigenvalues --    0.99626   1.10266   1.10450   1.13490   1.13999

 Mulliken charges and spin densities:
               1          2
     1  O   -0.295248   0.594900
     2  O   -0.204752   0.905100
     3  O   -0.204752   0.905100
     4  O   -0.295248   0.594900
 Sum of Mulliken charges =  -1.00000   3.00000

 Dipole moment (field-independent basis, Debye):
    X=             -0.0000    Y=             -0.0000    Z=             -0.0000  Tot=              0.0000
 Quadrupole moment (field-independent basis, Debye-Ang):
   XX=            -21.8759   YY=            -23.0566   ZZ=            -43.9240
   XY=              0.0000   XZ=              0.0000   YZ=              0.0000

 0.1747214\CCSD=-300.1846072\CCSD(T)=-300.2324623\RMSD=4.316e-09\PG=D*H
 Normal termination of Gaussian 16 at Sun Jan 15 02:53:03 2023.
