 Gaussian 16, Revision A.03,
 Gaussian 16:  ES64L-G16RevA.03 25-Dec-2016

 ---------------------------------------------------------------
 #p ROCCSD(T)/cc-pVTZ Guess=Read SCF=(VeryTight,CDIIS,VShift=10)
 ---------------------------------------------------------------

 ---------
 O2_O2_213
 ---------
 Symbolic Z-matrix:
 Charge = -1 Multiplicity = 4

                         Standard orientation:
 ---------------------------------------------------------------------
 Center     Atomic      Atomic             Coordinates (Angstroms)
 Number     Number       Type             X           Y           Z
 ---------------------------------------------------------------------
      1          8           0        0.000000    0.000000    2.300464
      2          8           0        0.000000    0.000000    3.652845
      3          8           0        0.000000    0.000000   -3.652845
      4          8           0        0.000000    0.000000   -2.300464
 ---------------------------------------------------------------------

 SCF Done:  E(ROHF) =  -299.196599160     A.U. after    7 cycles
 E2 =    -0.9841842586D+00 EUMP2 =    -0.30018078341875D+03
 CCSD(T)
 CCSD(T)= -0.30022477127D+03

 Unable to determine electronic state:  an orbital has unidentified symmetry.
 Alpha  occ. eigenvalues --  -20.49646 -20.49646 -20.44587 -20.44587  -1.32413
 Alpha  occ. eigenvalues --   -1.32412  -0.95228  -0.95221  -0.52448  -0.52447
 Alpha  occ. eigenvalues --   -0.48945  -0.48927  -0.45054  -0.45012  -0.29175
 Alpha  occ. eigenvalues --   -0.29165  -0.27621  -0.27493
 Alpha virt. eigenvalues --    0.49308   0.50352   0.89064   0.90152   0.90166
 Alpha virt. eigenvalues --    0.90255   0.92222   0.92276   0.96088   0.99249
 Alpha virt. eigenvalues --    1.01202   1.01427   1.01662   1.01998   1.12073

 Mulliken charges and spin densities:
               1          2
     1  O   -0.327686   0.568489
     2  O   -0.172314   0.931511
     3  O   -0.172314   0.931511
     4  O   -0.327686   0.568489
 Sum of Mulliken charges =  -1.00000   3.00000

 Dipole moment (field-independent basis, Debye):
    X=             -0.0000    Y=             -0.0000    Z=             -0.0000  Tot=              0.0000
 Quadrupole moment (field-independent basis, Debye-Ang):
   XX=            -21.8689   YY=            -23.0064   ZZ=            -62.6069
   XY=              0.0000   XZ=              0.0000   YZ=              0.0000

 00.167137\CCSD=-300.176822\CCSD(T)=-300.2247713\RMSD=6.988e-09\PG=D*H
 Normal termination of Gaussian 16 at Sun Jan 15 08:44:53 2023.
