 Gaussian 16, Revision A.03,
 Gaussian 16:  ES64L-G16RevA.03 25-Dec-2016

 ---------------------------------------------------------------
 #p ROCCSD(T)/cc-pVTZ Guess=Read SCF=(VeryTight,CDIIS,VShift=10)
 ---------------------------------------------------------------

 --------
 O2_O2_82
 --------
 Symbolic Z-matrix:
 Charge = -1 Multiplicity = 4

                         Standard orientation:
 ---------------------------------------------------------------------
 Center     Atomic      Atomic             Coordinates (Angstroms)
 Number     Number       Type             X           Y           Z
 ---------------------------------------------------------------------
      1          8           0        0.000000    0.000000    1.373078
      2          8           0        0.000000    0.000000    2.725458
      3          8           0        0.000000    0.000000   -2.725458
      4          8           0        0.000000    0.000000   -1.373078
 ---------------------------------------------------------------------

 SCF Done:  E(ROHF) =  -299.204487526     A.U. after   11 cycles
 E2 =    -0.9779858266D+00 EUMP2 =    -0.30018247335221D+03
 CCSD(T)
 CCSD(T)= -0.30023274001D+03

 Unable to determine electronic state:  an orbital has unidentified symmetry.
 Alpha  occ. eigenvalues --  -20.46986 -20.46986 -20.42916 -20.42915  -1.30343
 Alpha  occ. eigenvalues --   -1.30226  -0.93477  -0.92635  -0.50249  -0.50110
 Alpha  occ. eigenvalues --   -0.46872  -0.46662  -0.43848  -0.41576  -0.27507
 Alpha  occ. eigenvalues --   -0.26699  -0.25668  -0.25142
 Alpha virt. eigenvalues --    0.49660   0.56703   0.90773   0.91470   0.92371
 Alpha virt. eigenvalues --    0.92583   0.92876   0.94199   0.94908   0.98215
 Alpha virt. eigenvalues --    0.99583   1.10561   1.10738   1.13510   1.14036

 Mulliken charges and spin densities:
               1          2
     1  O   -0.294194   0.595531
     2  O   -0.205806   0.904469
     3  O   -0.205806   0.904469
     4  O   -0.294194   0.595531
 Sum of Mulliken charges =  -1.00000   3.00000

 Dipole moment (field-independent basis, Debye):
    X=             -0.0000    Y=              0.0000    Z=             -0.0000  Tot=              0.0000
 Quadrupole moment (field-independent basis, Debye-Ang):
   XX=            -21.8759   YY=            -23.0586   ZZ=            -43.7049
   XY=              0.0000   XZ=              0.0000   YZ=              0.0000

 0.1750034\CCSD=-300.1848889\CCSD(T)=-300.23274\RMSD=4.122e-09\PG=D*H [
 Normal termination of Gaussian 16 at Sun Jan 15 02:47:38 2023.
