 Gaussian 16, Revision A.03,
 Gaussian 16:  ES64L-G16RevA.03 25-Dec-2016

 ---------------------------------------------------------------
 #p ROCCSD(T)/cc-pVTZ Guess=Read SCF=(VeryTight,CDIIS,VShift=10)
 ---------------------------------------------------------------

 ---------
 O2_O2_237
 ---------
 Symbolic Z-matrix:
 Charge = -1 Multiplicity = 4

                         Standard orientation:
 ---------------------------------------------------------------------
 Center     Atomic      Atomic             Coordinates (Angstroms)
 Number     Number       Type             X           Y           Z
 ---------------------------------------------------------------------
      1          8           0        0.000000    0.000000    2.470368
      2          8           0        0.000000    0.000000    3.822748
      3          8           0        0.000000    0.000000   -3.822748
      4          8           0        0.000000    0.000000   -2.470368
 ---------------------------------------------------------------------

 SCF Done:  E(ROHF) =  -299.196396043     A.U. after    7 cycles
 E2 =    -0.9847769288D+00 EUMP2 =    -0.30018117297201D+03
 CCSD(T)
 CCSD(T)= -0.30022457367D+03

 Unable to determine electronic state:  an orbital has unidentified symmetry.
 Alpha  occ. eigenvalues --  -20.49956 -20.49956 -20.44821 -20.44821  -1.32682
 Alpha  occ. eigenvalues --   -1.32682  -0.95496  -0.95493  -0.52728  -0.52728
 Alpha  occ. eigenvalues --   -0.49215  -0.49196  -0.45321  -0.45304  -0.29433
 Alpha  occ. eigenvalues --   -0.29430  -0.27887  -0.27755
 Alpha virt. eigenvalues --    0.49324   0.49781   0.89224   0.89758   0.89910
 Alpha virt. eigenvalues --    0.89915   0.91982   0.92011   0.96577   0.97827
 Alpha virt. eigenvalues --    1.00998   1.01073   1.01459   1.01657   1.11817

 Mulliken charges and spin densities:
               1          2
     1  O   -0.330706   0.565770
     2  O   -0.169294   0.934230
     3  O   -0.169294   0.934230
     4  O   -0.330706   0.565770
 Sum of Mulliken charges =  -1.00000   3.00000

 Dipole moment (field-independent basis, Debye):
    X=             -0.0000    Y=             -0.0000    Z=              0.0000  Tot=              0.0000
 Quadrupole moment (field-independent basis, Debye-Ang):
   XX=            -21.8681   YY=            -23.0058   ZZ=            -67.0162
   XY=              0.0000   XZ=              0.0000   YZ=              0.0000

 98\CCSD=-300.1766029\CCSD(T)=-300.2245737\RMSD=5.288e-09\PG=D*H [C*(O1
 Normal termination of Gaussian 16 at Mon Jan 16 03:56:25 2023.
