 Gaussian 16, Revision A.03,
 Gaussian 16:  ES64L-G16RevA.03 25-Dec-2016

 ---------------------------------------------------------------
 #p ROCCSD(T)/cc-pVTZ Guess=Read SCF=(VeryTight,CDIIS,VShift=10)
 ---------------------------------------------------------------

 ---------
 O2_O2_135
 ---------
 Symbolic Z-matrix:
 Charge = -1 Multiplicity = 4

                         Standard orientation:
 ---------------------------------------------------------------------
 Center     Atomic      Atomic             Coordinates (Angstroms)
 Number     Number       Type             X           Y           Z
 ---------------------------------------------------------------------
      1          8           0        0.000000    0.000000    1.748280
      2          8           0        0.000000    0.000000    3.100660
      3          8           0        0.000000    0.000000   -3.100660
      4          8           0        0.000000    0.000000   -1.748280
 ---------------------------------------------------------------------

 SCF Done:  E(ROHF) =  -299.198922903     A.U. after    8 cycles
 E2 =    -0.9814811885D+00 EUMP2 =    -0.30018040409143D+03
 CCSD(T)
 CCSD(T)= -0.30022719700D+03

 Unable to determine electronic state:  an orbital has unidentified symmetry.
 Alpha  occ. eigenvalues --  -20.48331 -20.48331 -20.43680 -20.43680  -1.31317
 Alpha  occ. eigenvalues --   -1.31302  -0.94169  -0.94042  -0.51297  -0.51275
 Alpha  occ. eigenvalues --   -0.47832  -0.47817  -0.44107  -0.43606  -0.28181
 Alpha  occ. eigenvalues --   -0.28020  -0.26465  -0.26459
 Alpha virt. eigenvalues --    0.48194   0.53640   0.85741   0.91032   0.91273
 Alpha virt. eigenvalues --    0.91407   0.92910   0.93276   0.93555   1.00613
 Alpha virt. eigenvalues --    1.01249   1.04460   1.04865   1.12730   1.13119

 Mulliken charges and spin densities:
               1          2
     1  O   -0.313489   0.581341
     2  O   -0.186511   0.918659
     3  O   -0.186511   0.918659
     4  O   -0.313489   0.581341
 Sum of Mulliken charges =  -1.00000   3.00000

 Dipole moment (field-independent basis, Debye):
    X=             -0.0000    Y=             -0.0000    Z=              0.0000  Tot=              0.0000
 Quadrupole moment (field-independent basis, Debye-Ang):
   XX=            -21.8729   YY=            -23.0208   ZZ=            -50.2763
   XY=              0.0000   XZ=              0.0000   YZ=              0.0000

 .1694784\CCSD=-300.1793006\CCSD(T)=-300.227197\RMSD=5.201e-09\PG=D*H [
 Normal termination of Gaussian 16 at Sun Jan 15 05:11:38 2023.
