 Gaussian 16, Revision A.03,
 Gaussian 16:  ES64L-G16RevA.03 25-Dec-2016

 ---------------------------------------------------------------
 #p ROCCSD(T)/cc-pVTZ Guess=Read SCF=(VeryTight,CDIIS,VShift=10)
 ---------------------------------------------------------------

 ---------
 O2_O2_104
 ---------
 Symbolic Z-matrix:
 Charge = -1 Multiplicity = 4

                         Standard orientation:
 ---------------------------------------------------------------------
 Center     Atomic      Atomic             Coordinates (Angstroms)
 Number     Number       Type             X           Y           Z
 ---------------------------------------------------------------------
      1          8           0        0.000000    0.000000    1.528822
      2          8           0        0.000000    0.000000    2.881202
      3          8           0        0.000000    0.000000   -2.881202
      4          8           0        0.000000    0.000000   -1.528822
 ---------------------------------------------------------------------

 SCF Done:  E(ROHF) =  -299.201574397     A.U. after    8 cycles
 E2 =    -0.9797432958D+00 EUMP2 =    -0.30018131769313D+03
 CCSD(T)
 CCSD(T)= -0.30022991806D+03

 Unable to determine electronic state:  an orbital has unidentified symmetry.
 Alpha  occ. eigenvalues --  -20.47612 -20.47612 -20.43255 -20.43255  -1.30770
 Alpha  occ. eigenvalues --   -1.30721  -0.93719  -0.93334  -0.50715  -0.50649
 Alpha  occ. eigenvalues --   -0.47290  -0.47203  -0.43843  -0.42624  -0.27763
 Alpha  occ. eigenvalues --   -0.27343  -0.25989  -0.25782
 Alpha virt. eigenvalues --    0.48729   0.55326   0.88266   0.91151   0.91325
 Alpha virt. eigenvalues --    0.91882   0.92849   0.93088   0.94312   0.99252
 Alpha virt. eigenvalues --    1.00226   1.07542   1.07810   1.13256   1.13635

 Mulliken charges and spin densities:
               1          2
     1  O   -0.304098   0.588967
     2  O   -0.195902   0.911033
     3  O   -0.195902   0.911033
     4  O   -0.304098   0.588967
 Sum of Mulliken charges =  -1.00000   3.00000

 Dipole moment (field-independent basis, Debye):
    X=             -0.0000    Y=              0.0000    Z=             -0.0000  Tot=              0.0000
 Quadrupole moment (field-independent basis, Debye-Ang):
   XX=            -21.8749   YY=            -23.0391   ZZ=            -46.2456
   XY=              0.0000   XZ=              0.0000   YZ=              0.0000

 00.1721618\CCSD=-300.1820353\CCSD(T)=-300.2299181\RMSD=9.540e-09\PG=D*
 Normal termination of Gaussian 16 at Sun Jan 15 03:46:58 2023.
