 Gaussian 16, Revision A.03,
 Gaussian 16:  ES64L-G16RevA.03 25-Dec-2016

 ---------------------------------------------------------------
 #p ROCCSD(T)/cc-pVTZ Guess=Read SCF=(VeryTight,CDIIS,VShift=10)
 ---------------------------------------------------------------

 ---------
 O2_O2_290
 ---------
 Symbolic Z-matrix:
 Charge = -1 Multiplicity = 4

                         Standard orientation:
 ---------------------------------------------------------------------
 Center     Atomic      Atomic             Coordinates (Angstroms)
 Number     Number       Type             X           Y           Z
 ---------------------------------------------------------------------
      1          8           0        0.000000    0.000000    2.845570
      2          8           0        0.000000    0.000000    4.197950
      3          8           0        0.000000    0.000000   -4.197950
      4          8           0        0.000000    0.000000   -2.845570
 ---------------------------------------------------------------------

 SCF Done:  E(ROHF) =  -299.196163653     A.U. after    7 cycles
 E2 =    -0.9858392146D+00 EUMP2 =    -0.30018200286800D+03
 CCSD(T)
 CCSD(T)= -0.30022435701D+03

 Unable to determine electronic state:  an orbital has unidentified symmetry.
 Alpha  occ. eigenvalues --  -20.50527 -20.50527 -20.45265 -20.45265  -1.33184
 Alpha  occ. eigenvalues --   -1.33184  -0.95997  -0.95997  -0.53250  -0.53250
 Alpha  occ. eigenvalues --   -0.49716  -0.49698  -0.45831  -0.45830  -0.29921
 Alpha  occ. eigenvalues --   -0.29921  -0.28379  -0.28246
 Alpha virt. eigenvalues --    0.48994   0.49041   0.88999   0.89056   0.89449
 Alpha virt. eigenvalues --    0.89449   0.91515   0.91532   0.96495   0.96601
 Alpha virt. eigenvalues --    1.00515   1.00520   1.00986   1.01118   1.11336

 Mulliken charges and spin densities:
               1          2
     1  O   -0.335942   0.561070
     2  O   -0.164058   0.938930
     3  O   -0.164058   0.938930
     4  O   -0.335942   0.561070
 Sum of Mulliken charges =  -1.00000   3.00000

 Dipole moment (field-independent basis, Debye):
    X=             -0.0000    Y=              0.0000    Z=             -0.0000  Tot=              0.0000
 Quadrupole moment (field-independent basis, Debye-Ang):
   XX=            -21.8672   YY=            -23.0057   ZZ=            -77.7774
   XY=              0.0000   XZ=              0.0000   YZ=              0.0000

 512\CCSD=-300.1763464\CCSD(T)=-300.224357\RMSD=5.596e-09\PG=D*H [C*(O1
 Normal termination of Gaussian 16 at Mon Jan 16 05:00:19 2023.
