 Gaussian 16, Revision A.03,
 Gaussian 16:  ES64L-G16RevA.03 25-Dec-2016

 ---------------------------------------------------------------
 #p ROCCSD(T)/cc-pVTZ Guess=Read SCF=(VeryTight,CDIIS,VShift=10)
 ---------------------------------------------------------------

 ---------
 O2_O2_136
 ---------
 Symbolic Z-matrix:
 Charge = -1 Multiplicity = 4

                         Standard orientation:
 ---------------------------------------------------------------------
 Center     Atomic      Atomic             Coordinates (Angstroms)
 Number     Number       Type             X           Y           Z
 ---------------------------------------------------------------------
      1          8           0        0.000000    0.000000    1.755359
      2          8           0        0.000000    0.000000    3.107739
      3          8           0        0.000000    0.000000   -3.107739
      4          8           0        0.000000    0.000000   -1.755359
 ---------------------------------------------------------------------

 SCF Done:  E(ROHF) =  -299.198861648     A.U. after    8 cycles
 E2 =    -0.9815275532D+00 EUMP2 =    -0.30018038920107D+03
 CCSD(T)
 CCSD(T)= -0.30022713256D+03

 Unable to determine electronic state:  an orbital has unidentified symmetry.
 Alpha  occ. eigenvalues --  -20.48352 -20.48352 -20.43693 -20.43693  -1.31333
 Alpha  occ. eigenvalues --   -1.31319  -0.94184  -0.94062  -0.51315  -0.51293
 Alpha  occ. eigenvalues --   -0.47849  -0.47835  -0.44118  -0.43632  -0.28195
 Alpha  occ. eigenvalues --   -0.28039  -0.26484  -0.26474
 Alpha virt. eigenvalues --    0.48197   0.53588   0.85747   0.91021   0.91255
 Alpha virt. eigenvalues --    0.91407   0.92906   0.93289   0.93533   1.00646
 Alpha virt. eigenvalues --    1.01275   1.04385   1.04794   1.12700   1.13103

 Mulliken charges and spin densities:
               1          2
     1  O   -0.313736   0.581125
     2  O   -0.186264   0.918875
     3  O   -0.186264   0.918875
     4  O   -0.313736   0.581125
 Sum of Mulliken charges =  -1.00000   3.00000

 Dipole moment (field-independent basis, Debye):
    X=             -0.0000    Y=             -0.0000    Z=             -0.0000  Tot=              0.0000
 Quadrupole moment (field-independent basis, Debye-Ang):
   XX=            -21.8729   YY=            -23.0204   ZZ=            -50.4147
   XY=              0.0000   XZ=              0.0000   YZ=              0.0000

 00.1694156\CCSD=-300.179236\CCSD(T)=-300.2271326\RMSD=5.116e-09\PG=D*H
 Normal termination of Gaussian 16 at Sun Jan 15 05:14:15 2023.
