 Gaussian 16, Revision A.03,
 Gaussian 16:  ES64L-G16RevA.03 25-Dec-2016

 ---------------------------------------------------------------
 #p ROCCSD(T)/cc-pVTZ Guess=Read SCF=(VeryTight,CDIIS,VShift=10)
 ---------------------------------------------------------------

 ---------
 O2_O2_275
 ---------
 Symbolic Z-matrix:
 Charge = -1 Multiplicity = 4

                         Standard orientation:
 ---------------------------------------------------------------------
 Center     Atomic      Atomic             Coordinates (Angstroms)
 Number     Number       Type             X           Y           Z
 ---------------------------------------------------------------------
      1          8           0        0.000000    0.000000    2.739381
      2          8           0        0.000000    0.000000    4.091761
      3          8           0        0.000000    0.000000   -4.091761
      4          8           0        0.000000    0.000000   -2.739381
 ---------------------------------------------------------------------

 SCF Done:  E(ROHF) =  -299.196212342     A.U. after    7 cycles
 E2 =    -0.9855671802D+00 EUMP2 =    -0.30018177952233D+03
 CCSD(T)
 CCSD(T)= -0.30022440116D+03

 Unable to determine electronic state:  an orbital has unidentified symmetry.
 Alpha  occ. eigenvalues --  -20.50379 -20.50379 -20.45149 -20.45149  -1.33053
 Alpha  occ. eigenvalues --   -1.33053  -0.95867  -0.95866  -0.53114  -0.53114
 Alpha  occ. eigenvalues --   -0.49586  -0.49567  -0.45698  -0.45694  -0.29794
 Alpha  occ. eigenvalues --   -0.29793  -0.28251  -0.28118
 Alpha virt. eigenvalues --    0.49109   0.49204   0.89095   0.89210   0.89569
 Alpha virt. eigenvalues --    0.89570   0.91638   0.91656   0.96598   0.96823
 Alpha virt. eigenvalues --    1.00647   1.00657   1.01115   1.01253   1.11462

 Mulliken charges and spin densities:
               1          2
     1  O   -0.334632   0.562248
     2  O   -0.165368   0.937752
     3  O   -0.165368   0.937752
     4  O   -0.334632   0.562248
 Sum of Mulliken charges =  -1.00000   3.00000

 Dipole moment (field-independent basis, Debye):
    X=             -0.0000    Y=              0.0000    Z=             -0.0000  Tot=              0.0000
 Quadrupole moment (field-independent basis, Debye-Ang):
   XX=            -21.8674   YY=            -23.0057   ZZ=            -74.5889
   XY=              0.0000   XZ=              0.0000   YZ=              0.0000

 667905\CCSD=-300.1764008\CCSD(T)=-300.2244012\RMSD=5.799e-09\PG=D*H [C
 Normal termination of Gaussian 16 at Mon Jan 16 04:42:03 2023.
