 Gaussian 16, Revision A.03,
 Gaussian 16:  ES64L-G16RevA.03 25-Dec-2016

 ---------------------------------------------------------------
 #p ROCCSD(T)/cc-pVTZ Guess=Read SCF=(VeryTight,CDIIS,VShift=10)
 ---------------------------------------------------------------

 ---------
 O2_O2_281
 ---------
 Symbolic Z-matrix:
 Charge = -1 Multiplicity = 4

                         Standard orientation:
 ---------------------------------------------------------------------
 Center     Atomic      Atomic             Coordinates (Angstroms)
 Number     Number       Type             X           Y           Z
 ---------------------------------------------------------------------
      1          8           0        0.000000    0.000000    2.781857
      2          8           0        0.000000    0.000000    4.134237
      3          8           0        0.000000    0.000000   -4.134237
      4          8           0        0.000000    0.000000   -2.781857
 ---------------------------------------------------------------------

 SCF Done:  E(ROHF) =  -299.196191742     A.U. after    7 cycles
 E2 =    -0.9856783849D+00 EUMP2 =    -0.30018187012696D+03
 CCSD(T)
 CCSD(T)= -0.30022438236D+03

 Unable to determine electronic state:  an orbital has unidentified symmetry.
 Alpha  occ. eigenvalues --  -20.50439 -20.50439 -20.45196 -20.45196  -1.33107
 Alpha  occ. eigenvalues --   -1.33106  -0.95920  -0.95919  -0.53170  -0.53170
 Alpha  occ. eigenvalues --   -0.49639  -0.49621  -0.45752  -0.45750  -0.29846
 Alpha  occ. eigenvalues --   -0.29845  -0.28303  -0.28170
 Alpha virt. eigenvalues --    0.49064   0.49136   0.89058   0.89145   0.89520
 Alpha virt. eigenvalues --    0.89521   0.91588   0.91606   0.96560   0.96728
 Alpha virt. eigenvalues --    1.00593   1.00601   1.01062   1.01198   1.11411

 Mulliken charges and spin densities:
               1          2
     1  O   -0.335170   0.561764
     2  O   -0.164830   0.938236
     3  O   -0.164830   0.938236
     4  O   -0.335170   0.561764
 Sum of Mulliken charges =  -1.00000   3.00000

 Dipole moment (field-independent basis, Debye):
    X=             -0.0000    Y=              0.0000    Z=             -0.0000  Tot=              0.0000
 Quadrupole moment (field-independent basis, Debye-Ang):
   XX=            -21.8673   YY=            -23.0057   ZZ=            -75.8508
   XY=              0.0000   XZ=              0.0000   YZ=              0.0000

 667737\CCSD=-300.1763778\CCSD(T)=-300.2243824\RMSD=5.755e-09\PG=D*H [C
 Normal termination of Gaussian 16 at Mon Jan 16 04:49:12 2023.
