 Gaussian 16, Revision A.03,
 Gaussian 16:  ES64L-G16RevA.03 25-Dec-2016

 ---------------------------------------------------------------
 #p ROCCSD(T)/cc-pVTZ Guess=Read SCF=(VeryTight,CDIIS,VShift=10)
 ---------------------------------------------------------------

 --------
 O2_O2_25
 --------
 Symbolic Z-matrix:
 Charge = -1 Multiplicity = 4

                         Standard orientation:
 ---------------------------------------------------------------------
 Center     Atomic      Atomic             Coordinates (Angstroms)
 Number     Number       Type             X           Y           Z
 ---------------------------------------------------------------------
      1          8           0        0.000000    0.000000    0.969558
      2          8           0        0.000000    0.000000    2.321938
      3          8           0        0.000000    0.000000   -2.321938
      4          8           0        0.000000    0.000000   -0.969558
 ---------------------------------------------------------------------

 SCF Done:  E(ROHF) =  -299.199825569     A.U. after    9 cycles
 E2 =    -0.9691496863D+00 EUMP2 =    -0.30016897525554D+03
 CCSD(T)
 CCSD(T)= -0.30022586245D+03

 Unable to determine electronic state:  an orbital has unidentified symmetry.
 Alpha  occ. eigenvalues --  -20.44340 -20.44339 -20.41388 -20.41386  -1.29360
 Alpha  occ. eigenvalues --   -1.28127  -0.94957  -0.88685  -0.48924  -0.47933
 Alpha  occ. eigenvalues --   -0.46144  -0.45992  -0.44327  -0.34922  -0.27706
 Alpha  occ. eigenvalues --   -0.25398  -0.23408  -0.22076
 Alpha virt. eigenvalues --    0.52010   0.62608   0.90442   0.91961   0.92818
 Alpha virt. eigenvalues --    0.93691   0.93927   0.96706   0.99465   1.01007
 Alpha virt. eigenvalues --    1.13622   1.14224   1.18691   1.18733   1.22633

 Mulliken charges and spin densities:
               1          2
     1  O   -0.241200   0.607919
     2  O   -0.258800   0.892081
     3  O   -0.258800   0.892081
     4  O   -0.241200   0.607919
 Sum of Mulliken charges =  -1.00000   3.00000

 Dipole moment (field-independent basis, Debye):
    X=             -0.0000    Y=             -0.0000    Z=              0.0000  Tot=              0.0000
 Quadrupole moment (field-independent basis, Debye-Ang):
   XX=            -21.8279   YY=            -23.0821   ZZ=            -38.8914
   XY=              0.0000   XZ=              0.0000   YZ=              0.0000

 0.1683917\CCSD=-300.1780425\CCSD(T)=-300.2258625\RMSD=3.224e-09\PG=D*H
 Normal termination of Gaussian 16 at Sun Jan 15 00:16:06 2023.
