 Gaussian 16, Revision A.03,
 Gaussian 16:  ES64L-G16RevA.03 25-Dec-2016

 ---------------------------------------------------------------
 #p ROCCSD(T)/cc-pVTZ Guess=Read SCF=(VeryTight,CDIIS,VShift=10)
 ---------------------------------------------------------------

 --------
 O2_O2_29
 --------
 Symbolic Z-matrix:
 Charge = -1 Multiplicity = 4

                         Standard orientation:
 ---------------------------------------------------------------------
 Center     Atomic      Atomic             Coordinates (Angstroms)
 Number     Number       Type             X           Y           Z
 ---------------------------------------------------------------------
      1          8           0        0.000000    0.000000    0.997875
      2          8           0        0.000000    0.000000    2.350255
      3          8           0        0.000000    0.000000   -2.350255
      4          8           0        0.000000    0.000000   -0.997875
 ---------------------------------------------------------------------

 SCF Done:  E(ROHF) =  -299.203030037     A.U. after    9 cycles
 E2 =    -0.9700059570D+00 EUMP2 =    -0.30017303599370D+03
 CCSD(T)
 CCSD(T)= -0.30022933653D+03

 Unable to determine electronic state:  an orbital has unidentified symmetry.
 Alpha  occ. eigenvalues --  -20.44620 -20.44620 -20.41559 -20.41557  -1.29386
 Alpha  occ. eigenvalues --   -1.28347  -0.94600  -0.89151  -0.49008  -0.48150
 Alpha  occ. eigenvalues --   -0.46005  -0.45799  -0.44570  -0.35764  -0.27596
 Alpha  occ. eigenvalues --   -0.25356  -0.23779  -0.22409
 Alpha virt. eigenvalues --    0.51889   0.61965   0.90400   0.92057   0.92642
 Alpha virt. eigenvalues --    0.93449   0.93793   0.96552   0.99074   1.00685
 Alpha virt. eigenvalues --    1.13668   1.14218   1.18211   1.18261   1.20818

 Mulliken charges and spin densities:
               1          2
     1  O   -0.246753   0.608203
     2  O   -0.253247   0.891797
     3  O   -0.253247   0.891797
     4  O   -0.246753   0.608203
 Sum of Mulliken charges =  -1.00000   3.00000

 Dipole moment (field-independent basis, Debye):
    X=             -0.0000    Y=              0.0000    Z=             -0.0000  Tot=              0.0000
 Quadrupole moment (field-independent basis, Debye-Ang):
   XX=            -21.8397   YY=            -23.0884   ZZ=            -39.1012
   XY=              0.0000   XZ=              0.0000   YZ=              0.0000

 7\CCSD=-300.1815565\CCSD(T)=-300.2293365\RMSD=5.542e-09\PG=D*H [C*(O1O
 Normal termination of Gaussian 16 at Sun Jan 15 00:26:11 2023.
