 Gaussian 16, Revision A.03,
 Gaussian 16:  ES64L-G16RevA.03 25-Dec-2016

 ---------------------------------------------------------------
 #p ROCCSD(T)/cc-pVTZ Guess=Read SCF=(VeryTight,CDIIS,VShift=10)
 ---------------------------------------------------------------

 ---------
 O2_O2_211
 ---------
 Symbolic Z-matrix:
 Charge = -1 Multiplicity = 4

                         Standard orientation:
 ---------------------------------------------------------------------
 Center     Atomic      Atomic             Coordinates (Angstroms)
 Number     Number       Type             X           Y           Z
 ---------------------------------------------------------------------
      1          8           0        0.000000    0.000000    2.286306
      2          8           0        0.000000    0.000000    3.638686
      3          8           0        0.000000    0.000000   -3.638686
      4          8           0        0.000000    0.000000   -2.286306
 ---------------------------------------------------------------------

 SCF Done:  E(ROHF) =  -299.196621292     A.U. after    7 cycles
 E2 =    -0.9841309563D+00 EUMP2 =    -0.30018075224853D+03
 CCSD(T)
 CCSD(T)= -0.30022479311D+03

 Unable to determine electronic state:  an orbital has unidentified symmetry.
 Alpha  occ. eigenvalues --  -20.49618 -20.49618 -20.44567 -20.44567  -1.32389
 Alpha  occ. eigenvalues --   -1.32389  -0.95205  -0.95197  -0.52423  -0.52422
 Alpha  occ. eigenvalues --   -0.48921  -0.48903  -0.45031  -0.44985  -0.29152
 Alpha  occ. eigenvalues --   -0.29142  -0.27597  -0.27470
 Alpha virt. eigenvalues --    0.49298   0.50409   0.89034   0.90174   0.90189
 Alpha virt. eigenvalues --    0.90301   0.92242   0.92300   0.96023   0.99417
 Alpha virt. eigenvalues --    1.01216   1.01462   1.01677   1.02032   1.12095

 Mulliken charges and spin densities:
               1          2
     1  O   -0.327412   0.568737
     2  O   -0.172588   0.931263
     3  O   -0.172588   0.931263
     4  O   -0.327412   0.568737
 Sum of Mulliken charges =  -1.00000   3.00000

 Dipole moment (field-independent basis, Debye):
    X=             -0.0000    Y=             -0.0000    Z=              0.0000  Tot=              0.0000
 Quadrupole moment (field-independent basis, Debye-Ang):
   XX=            -21.8689   YY=            -23.0065   ZZ=            -62.2525
   XY=              0.0000   XZ=              0.0000   YZ=              0.0000

 00.1671578\CCSD=-300.1768457\CCSD(T)=-300.2247931\RMSD=7.314e-09\PG=D*
 Normal termination of Gaussian 16 at Sun Jan 15 08:39:50 2023.
