 Gaussian 16, Revision A.03,
 Gaussian 16:  ES64L-G16RevA.03 25-Dec-2016

 ---------------------------------------------------------------
 #p ROCCSD(T)/cc-pVTZ Guess=Read SCF=(VeryTight,CDIIS,VShift=10)
 ---------------------------------------------------------------

 ---------
 O2_O2_181
 ---------
 Symbolic Z-matrix:
 Charge = -1 Multiplicity = 4

                         Standard orientation:
 ---------------------------------------------------------------------
 Center     Atomic      Atomic             Coordinates (Angstroms)
 Number     Number       Type             X           Y           Z
 ---------------------------------------------------------------------
      1          8           0        0.000000    0.000000    2.073927
      2          8           0        0.000000    0.000000    3.426307
      3          8           0        0.000000    0.000000   -3.426307
      4          8           0        0.000000    0.000000   -2.073927
 ---------------------------------------------------------------------

 SCF Done:  E(ROHF) =  -299.197110727     A.U. after    8 cycles
 E2 =    -0.9832477118D+00 EUMP2 =    -0.30018035843875D+03
 CCSD(T)
 CCSD(T)= -0.30022528833D+03

 Unable to determine electronic state:  an orbital has unidentified symmetry.
 Alpha  occ. eigenvalues --  -20.49171 -20.49171 -20.44241 -20.44241  -1.32007
 Alpha  occ. eigenvalues --   -1.32005  -0.94827  -0.94803  -0.52024  -0.52020
 Alpha  occ. eigenvalues --   -0.48536  -0.48522  -0.44668  -0.44543  -0.28792
 Alpha  occ. eigenvalues --   -0.28759  -0.27212  -0.27102
 Alpha virt. eigenvalues --    0.48944   0.51465   0.88070   0.90505   0.90556
 Alpha virt. eigenvalues --    0.90955   0.92552   0.92703   0.94713   1.01325
 Alpha virt. eigenvalues --    1.01804   1.02158   1.02693   1.03397   1.12464

 Mulliken charges and spin densities:
               1          2
     1  O   -0.322840   0.572901
     2  O   -0.177160   0.927099
     3  O   -0.177160   0.927099
     4  O   -0.322840   0.572901
 Sum of Mulliken charges =  -1.00000   3.00000

 Dipole moment (field-independent basis, Debye):
    X=             -0.0000    Y=             -0.0000    Z=              0.0000  Tot=              0.0000
 Quadrupole moment (field-independent basis, Debye-Ang):
   XX=            -21.8702   YY=            -23.0089   ZZ=            -57.1764
   XY=              0.0000   XZ=              0.0000   YZ=              0.0000

 00.1676331\CCSD=-300.1773683\CCSD(T)=-300.2252883\RMSD=3.730e-09\PG=D*
 Normal termination of Gaussian 16 at Sun Jan 15 07:19:19 2023.
