 Gaussian 16, Revision A.03,
 Gaussian 16:  ES64L-G16RevA.03 25-Dec-2016

 ---------------------------------------------------------------
 #p ROCCSD(T)/cc-pVTZ Guess=Read SCF=(VeryTight,CDIIS,VShift=10)
 ---------------------------------------------------------------

 ---------
 O2_O2_254
 ---------
 Symbolic Z-matrix:
 Charge = -1 Multiplicity = 4

                         Standard orientation:
 ---------------------------------------------------------------------
 Center     Atomic      Atomic             Coordinates (Angstroms)
 Number     Number       Type             X           Y           Z
 ---------------------------------------------------------------------
      1          8           0        0.000000    0.000000    2.590716
      2          8           0        0.000000    0.000000    3.943096
      3          8           0        0.000000    0.000000   -3.943096
      4          8           0        0.000000    0.000000   -2.590716
 ---------------------------------------------------------------------

 SCF Done:  E(ROHF) =  -299.196299866     A.U. after    7 cycles
 E2 =    -0.9851502722D+00 EUMP2 =    -0.30018145013874D+03
 CCSD(T)
 CCSD(T)= -0.30022448257D+03

 Unable to determine electronic state:  an orbital has unidentified symmetry.
 Alpha  occ. eigenvalues --  -20.50154 -20.50154 -20.44974 -20.44974  -1.32856
 Alpha  occ. eigenvalues --   -1.32855  -0.95670  -0.95668  -0.52909  -0.52909
 Alpha  occ. eigenvalues --   -0.49388  -0.49370  -0.45497  -0.45488  -0.29602
 Alpha  occ. eigenvalues --   -0.29600  -0.28057  -0.27925
 Alpha virt. eigenvalues --    0.49250   0.49486   0.89199   0.89478   0.89751
 Alpha virt. eigenvalues --    0.89753   0.91822   0.91845   0.96662   0.97263
 Alpha virt. eigenvalues --    1.00840   1.00872   1.01303   1.01462   1.11651

 Mulliken charges and spin densities:
               1          2
     1  O   -0.332580   0.564089
     2  O   -0.167420   0.935911
     3  O   -0.167420   0.935911
     4  O   -0.332580   0.564089
 Sum of Mulliken charges =  -1.00000   3.00000

 Dipole moment (field-independent basis, Debye):
    X=             -0.0000    Y=             -0.0000    Z=             -0.0000  Tot=              0.0000
 Quadrupole moment (field-independent basis, Debye-Ang):
   XX=            -21.8678   YY=            -23.0057   ZZ=            -70.3144
   XY=              0.0000   XZ=              0.0000   YZ=              0.0000

 668647\CCSD=-300.1764978\CCSD(T)=-300.2244826\RMSD=5.538e-09\PG=D*H [C
 Normal termination of Gaussian 16 at Mon Jan 16 04:17:42 2023.
