 Gaussian 16, Revision A.03,
 Gaussian 16:  ES64L-G16RevA.03 25-Dec-2016

 ---------------------------------------------------------------
 #p ROCCSD(T)/cc-pVTZ Guess=Read SCF=(VeryTight,CDIIS,VShift=10)
 ---------------------------------------------------------------

 ---------
 O2_O2_119
 ---------
 Symbolic Z-matrix:
 Charge = -1 Multiplicity = 4

                         Standard orientation:
 ---------------------------------------------------------------------
 Center     Atomic      Atomic             Coordinates (Angstroms)
 Number     Number       Type             X           Y           Z
 ---------------------------------------------------------------------
      1          8           0        0.000000    0.000000    1.635011
      2          8           0        0.000000    0.000000    2.987391
      3          8           0        0.000000    0.000000   -2.987391
      4          8           0        0.000000    0.000000   -1.635011
 ---------------------------------------------------------------------

 SCF Done:  E(ROHF) =  -299.200093673     A.U. after    8 cycles
 E2 =    -0.9806658122D+00 EUMP2 =    -0.30018075948507D+03
 CCSD(T)
 CCSD(T)= -0.30022841568D+03

 Unable to determine electronic state:  an orbital has unidentified symmetry.
 Alpha  occ. eigenvalues --  -20.47979 -20.47979 -20.43466 -20.43466  -1.31043
 Alpha  occ. eigenvalues --   -1.31016  -0.93931  -0.93706  -0.51007  -0.50968
 Alpha  occ. eigenvalues --   -0.47560  -0.47518  -0.43946  -0.43152  -0.27962
 Alpha  occ. eigenvalues --   -0.27696  -0.26217  -0.26138
 Alpha virt. eigenvalues --    0.48321   0.54486   0.86326   0.91196   0.91332
 Alpha virt. eigenvalues --    0.91575   0.92927   0.93136   0.93930   0.99982
 Alpha virt. eigenvalues --    1.00758   1.05867   1.06203   1.13046   1.13377

 Mulliken charges and spin densities:
               1          2
     1  O   -0.309132   0.585044
     2  O   -0.190868   0.914956
     3  O   -0.190868   0.914956
     4  O   -0.309132   0.585044
 Sum of Mulliken charges =  -1.00000   3.00000

 Dipole moment (field-independent basis, Debye):
    X=             -0.0000    Y=              0.0000    Z=              0.0000  Tot=              0.0000
 Quadrupole moment (field-independent basis, Debye-Ang):
   XX=            -21.8740   YY=            -23.0290   ZZ=            -48.1325
   XY=              0.0000   XZ=              0.0000   YZ=              0.0000

 00.1706725\CCSD=-300.180524\CCSD(T)=-300.2284157\RMSD=6.932e-09\PG=D*H
 Normal termination of Gaussian 16 at Sun Jan 15 04:28:18 2023.
