 Gaussian 16, Revision A.03,
 Gaussian 16:  ES64L-G16RevA.03 25-Dec-2016

 ---------------------------------------------------------------
 #p ROCCSD(T)/cc-pVTZ Guess=Read SCF=(VeryTight,CDIIS,VShift=10)
 ---------------------------------------------------------------

 ---------
 O2_O2_106
 ---------
 Symbolic Z-matrix:
 Charge = -1 Multiplicity = 4

                         Standard orientation:
 ---------------------------------------------------------------------
 Center     Atomic      Atomic             Coordinates (Angstroms)
 Number     Number       Type             X           Y           Z
 ---------------------------------------------------------------------
      1          8           0        0.000000    0.000000    1.542981
      2          8           0        0.000000    0.000000    2.895361
      3          8           0        0.000000    0.000000   -2.895361
      4          8           0        0.000000    0.000000   -1.542981
 ---------------------------------------------------------------------

 SCF Done:  E(ROHF) =  -299.201353063     A.U. after    8 cycles
 E2 =    -0.9798770443D+00 EUMP2 =    -0.30018123010735D+03
 CCSD(T)
 CCSD(T)= -0.30022969629D+03

 Unable to determine electronic state:  an orbital has unidentified symmetry.
 Alpha  occ. eigenvalues --  -20.47663 -20.47663 -20.43284 -20.43284  -1.30808
 Alpha  occ. eigenvalues --   -1.30762  -0.93746  -0.93387  -0.50755  -0.50693
 Alpha  occ. eigenvalues --   -0.47326  -0.47247  -0.43853  -0.42702  -0.27789
 Alpha  occ. eigenvalues --   -0.27393  -0.26019  -0.25833
 Alpha virt. eigenvalues --    0.48660   0.55210   0.87920   0.91181   0.91310
 Alpha virt. eigenvalues --    0.91839   0.92865   0.93091   0.94260   0.99353
 Alpha virt. eigenvalues --    1.00297   1.07299   1.07576   1.13230   1.13600

 Mulliken charges and spin densities:
               1          2
     1  O   -0.304836   0.588417
     2  O   -0.195164   0.911583
     3  O   -0.195164   0.911583
     4  O   -0.304836   0.588417
 Sum of Mulliken charges =  -1.00000   3.00000

 Dipole moment (field-independent basis, Debye):
    X=             -0.0000    Y=             -0.0000    Z=             -0.0000  Tot=              0.0000
 Quadrupole moment (field-independent basis, Debye-Ang):
   XX=            -21.8748   YY=            -23.0376   ZZ=            -46.4902
   XY=              0.0000   XZ=              0.0000   YZ=              0.0000

 00.1719408\CCSD=-300.1818119\CCSD(T)=-300.2296963\RMSD=9.111e-09\PG=D*
 Normal termination of Gaussian 16 at Sun Jan 15 03:52:18 2023.
