 Gaussian 16, Revision A.03,
 Gaussian 16:  ES64L-G16RevA.03 25-Dec-2016

 ---------------------------------------------------------------
 #p ROCCSD(T)/cc-pVTZ Guess=Read SCF=(VeryTight,CDIIS,VShift=10)
 ---------------------------------------------------------------

 ---------
 O2_O2_267
 ---------
 Symbolic Z-matrix:
 Charge = -1 Multiplicity = 4

                         Standard orientation:
 ---------------------------------------------------------------------
 Center     Atomic      Atomic             Coordinates (Angstroms)
 Number     Number       Type             X           Y           Z
 ---------------------------------------------------------------------
      1          8           0        0.000000    0.000000    2.682746
      2          8           0        0.000000    0.000000    4.035126
      3          8           0        0.000000    0.000000   -4.035126
      4          8           0        0.000000    0.000000   -2.682746
 ---------------------------------------------------------------------

 SCF Done:  E(ROHF) =  -299.196242549     A.U. after    7 cycles
 E2 =    -0.9854136369D+00 EUMP2 =    -0.30018165618605D+03
 CCSD(T)
 CCSD(T)= -0.30022442908D+03

 Unable to determine electronic state:  an orbital has unidentified symmetry.
 Alpha  occ. eigenvalues --  -20.50296 -20.50296 -20.45084 -20.45084  -1.32980
 Alpha  occ. eigenvalues --   -1.32980  -0.95794  -0.95793  -0.53038  -0.53038
 Alpha  occ. eigenvalues --   -0.49513  -0.49494  -0.45623  -0.45618  -0.29723
 Alpha  occ. eigenvalues --   -0.29722  -0.28179  -0.28046
 Alpha virt. eigenvalues --    0.49167   0.49303   0.89141   0.89303   0.89637
 Alpha virt. eigenvalues --    0.89638   0.91707   0.91726   0.96637   0.96968
 Alpha virt. eigenvalues --    1.00719   1.00736   1.01185   1.01329   1.11532

 Mulliken charges and spin densities:
               1          2
     1  O   -0.333882   0.562921
     2  O   -0.166118   0.937079
     3  O   -0.166118   0.937079
     4  O   -0.333882   0.562921
 Sum of Mulliken charges =  -1.00000   3.00000

 Dipole moment (field-independent basis, Debye):
    X=             -0.0000    Y=              0.0000    Z=             -0.0000  Tot=              0.0000
 Quadrupole moment (field-independent basis, Debye-Ang):
   XX=            -21.8675   YY=            -23.0056   ZZ=            -72.9344
   XY=              0.0000   XZ=              0.0000   YZ=              0.0000

 68157\CCSD=-300.1764344\CCSD(T)=-300.2244291\RMSD=5.768e-09\PG=D*H [C*
 Normal termination of Gaussian 16 at Mon Jan 16 04:32:42 2023.
