 Gaussian 16, Revision A.03,
 Gaussian 16:  ES64L-G16RevA.03 25-Dec-2016

 ---------------------------------------------------------------
 #p ROCCSD(T)/cc-pVTZ Guess=Read SCF=(VeryTight,CDIIS,VShift=10)
 ---------------------------------------------------------------

 ---------
 O2_O2_111
 ---------
 Symbolic Z-matrix:
 Charge = -1 Multiplicity = 4

                         Standard orientation:
 ---------------------------------------------------------------------
 Center     Atomic      Atomic             Coordinates (Angstroms)
 Number     Number       Type             X           Y           Z
 ---------------------------------------------------------------------
      1          8           0        0.000000    0.000000    1.578377
      2          8           0        0.000000    0.000000    2.930757
      3          8           0        0.000000    0.000000   -2.930757
      4          8           0        0.000000    0.000000   -1.578377
 ---------------------------------------------------------------------

 SCF Done:  E(ROHF) =  -299.200832596     A.U. after    8 cycles
 E2 =    -0.9801961453D+00 EUMP2 =    -0.30018102874172D+03
 CCSD(T)
 CCSD(T)= -0.30022917091D+03

 Unable to determine electronic state:  an orbital has unidentified symmetry.
 Alpha  occ. eigenvalues --  -20.47788 -20.47788 -20.43355 -20.43355  -1.30900
 Alpha  occ. eigenvalues --   -1.30863  -0.93815  -0.93515  -0.50854  -0.50802
 Alpha  occ. eigenvalues --   -0.47417  -0.47354  -0.43884  -0.42885  -0.27854
 Alpha  occ. eigenvalues --   -0.27514  -0.26095  -0.25955
 Alpha virt. eigenvalues --    0.48506   0.54927   0.87175   0.91248   0.91268
 Alpha virt. eigenvalues --    0.91735   0.92898   0.93104   0.94131   0.99603
 Alpha virt. eigenvalues --    1.00476   1.06717   1.07017   1.13162   1.13513

 Mulliken charges and spin densities:
               1          2
     1  O   -0.306587   0.587079
     2  O   -0.193413   0.912921
     3  O   -0.193413   0.912921
     4  O   -0.306587   0.587079
 Sum of Mulliken charges =  -1.00000   3.00000

 Dipole moment (field-independent basis, Debye):
    X=             -0.0000    Y=              0.0000    Z=              0.0000  Tot=              0.0000
 Quadrupole moment (field-independent basis, Debye-Ang):
   XX=            -21.8745   YY=            -23.0341   ZZ=            -47.1112
   XY=              0.0000   XZ=              0.0000   YZ=              0.0000

 00.1714189\CCSD=-300.1812831\CCSD(T)=-300.2291709\RMSD=8.157e-09\PG=D*
 Normal termination of Gaussian 16 at Sun Jan 15 04:07:32 2023.
