 Gaussian 16, Revision A.03,
 Gaussian 16:  ES64L-G16RevA.03 25-Dec-2016

 ---------------------------------------------------------------
 #p ROCCSD(T)/cc-pVTZ Guess=Read SCF=(VeryTight,CDIIS,VShift=10)
 ---------------------------------------------------------------

 --------
 O2_O2_60
 --------
 Symbolic Z-matrix:
 Charge = -1 Multiplicity = 4

                         Standard orientation:
 ---------------------------------------------------------------------
 Center     Atomic      Atomic             Coordinates (Angstroms)
 Number     Number       Type             X           Y           Z
 ---------------------------------------------------------------------
      1          8           0        0.000000    0.000000    1.217333
      2          8           0        0.000000    0.000000    2.569713
      3          8           0        0.000000    0.000000   -2.569713
      4          8           0        0.000000    0.000000   -1.217333
 ---------------------------------------------------------------------

 SCF Done:  E(ROHF) =  -299.207631839     A.U. after   10 cycles
 E2 =    -0.9754629178D+00 EUMP2 =    -0.30018309475639D+03
 CCSD(T)
 CCSD(T)= -0.30023546169D+03

 Unable to determine electronic state:  an orbital has unidentified symmetry.
 Alpha  occ. eigenvalues --  -20.46210 -20.46210 -20.42498 -20.42498  -1.29898
 Alpha  occ. eigenvalues --   -1.29611  -0.93457  -0.91628  -0.49741  -0.49448
 Alpha  occ. eigenvalues --   -0.46449  -0.45979  -0.44192  -0.39981  -0.27351
 Alpha  occ. eigenvalues --   -0.25815  -0.25410  -0.24286
 Alpha virt. eigenvalues --    0.50671   0.58400   0.90470   0.91683   0.92431
 Alpha virt. eigenvalues --    0.92748   0.92908   0.95539   0.97747   0.99458
 Alpha virt. eigenvalues --    1.03582   1.13687   1.13908   1.14018   1.14461

 Mulliken charges and spin densities:
               1          2
     1  O   -0.279760   0.602513
     2  O   -0.220240   0.897487
     3  O   -0.220240   0.897487
     4  O   -0.279760   0.602513
 Sum of Mulliken charges =  -1.00000   3.00000

 Dipole moment (field-independent basis, Debye):
    X=             -0.0000    Y=              0.0000    Z=             -0.0000  Tot=              0.0000
 Quadrupole moment (field-independent basis, Debye-Ang):
   XX=            -21.8741   YY=            -23.0814   ZZ=            -41.4744
   XY=              0.0000   XZ=              0.0000   YZ=              0.0000

 0.177812\CCSD=-300.1876722\CCSD(T)=-300.2354617\RMSD=8.763e-09\PG=D*H
 Normal termination of Gaussian 16 at Sun Jan 15 01:47:20 2023.
