 Gaussian 16, Revision A.03,
 Gaussian 16:  ES64L-G16RevA.03 25-Dec-2016

 ---------------------------------------------------------------
 #p ROCCSD(T)/cc-pVTZ Guess=Read SCF=(VeryTight,CDIIS,VShift=10)
 ---------------------------------------------------------------

 --------
 O2_O2_13
 --------
 Symbolic Z-matrix:
 Charge = -1 Multiplicity = 4

                         Standard orientation:
 ---------------------------------------------------------------------
 Center     Atomic      Atomic             Coordinates (Angstroms)
 Number     Number       Type             X           Y           Z
 ---------------------------------------------------------------------
      1          8           0        0.000000    0.000000    0.884606
      2          8           0        0.000000    0.000000    2.236987
      3          8           0        0.000000    0.000000   -2.236987
      4          8           0        0.000000    0.000000   -0.884606
 ---------------------------------------------------------------------

 SCF Done:  E(ROHF) =  -299.181635919     A.U. after   10 cycles
 E2 =    -0.9666360943D+00 EUMP2 =    -0.30014827201311D+03
 CCSD(T)
 CCSD(T)= -0.30020689669D+03

 Unable to determine electronic state:  an orbital has unidentified symmetry.
 Alpha  occ. eigenvalues --  -20.43322 -20.43322 -20.40806 -20.40804  -1.29443
 Alpha  occ. eigenvalues --   -1.27350  -0.96549  -0.86998  -0.48740  -0.47393
 Alpha  occ. eigenvalues --   -0.47181  -0.46115  -0.43475  -0.31729  -0.28231
 Alpha  occ. eigenvalues --   -0.25628  -0.22081  -0.20900
 Alpha virt. eigenvalues --    0.52241   0.64961   0.90767   0.91631   0.93328
 Alpha virt. eigenvalues --    0.94375   0.94424   0.97225   1.00937   1.02249
 Alpha virt. eigenvalues --    1.13378   1.13963   1.20001   1.20019   1.27173

 Mulliken charges and spin densities:
               1          2
     1  O   -0.221360   0.604510
     2  O   -0.278640   0.895490
     3  O   -0.278640   0.895490
     4  O   -0.221360   0.604510
 Sum of Mulliken charges =  -1.00000   3.00000

 Dipole moment (field-independent basis, Debye):
    X=             -0.0000    Y=              0.0000    Z=             -0.0000  Tot=              0.0000
 Quadrupole moment (field-independent basis, Debye-Ang):
   XX=            -21.7722   YY=            -23.0430   ZZ=            -38.4619
   XY=              0.0000   XZ=              0.0000   YZ=              0.0000

 1493817\CCSD=-300.1587852\CCSD(T)=-300.2068967\RMSD=7.357e-09\PG=D*H [
 Normal termination of Gaussian 16 at Sat Jan 14 23:41:55 2023.
