 Gaussian 16, Revision A.03,
 Gaussian 16:  ES64L-G16RevA.03 25-Dec-2016

 ---------------------------------------------------------------
 #p ROCCSD(T)/cc-pVTZ Guess=Read SCF=(VeryTight,CDIIS,VShift=10)
 ---------------------------------------------------------------

 -------
 O2_O2_5
 -------
 Symbolic Z-matrix:
 Charge = -1 Multiplicity = 4

                         Standard orientation:
 ---------------------------------------------------------------------
 Center     Atomic      Atomic             Coordinates (Angstroms)
 Number     Number       Type             X           Y           Z
 ---------------------------------------------------------------------
      1          8           0        0.000000    0.000000    0.827972
      2          8           0        0.000000    0.000000    2.180352
      3          8           0        0.000000    0.000000   -2.180352
      4          8           0        0.000000    0.000000   -0.827972
 ---------------------------------------------------------------------

 SCF Done:  E(ROHF) =  -299.158426867     A.U. after   10 cycles
 E2 =    -0.9654285513D+00 EUMP2 =    -0.30012385541851D+03
 CCSD(T)
 CCSD(T)= -0.30018342470D+03

 Unable to determine electronic state:  an orbital has unidentified symmetry.
 Alpha  occ. eigenvalues --  -20.42447 -20.42447 -20.40395 -20.40393  -1.29760
 Alpha  occ. eigenvalues --   -1.26715  -0.98194  -0.85598  -0.48730  -0.48396
 Alpha  occ. eigenvalues --   -0.46571  -0.46441  -0.42784  -0.28875  -0.28799
 Alpha  occ. eigenvalues --   -0.25878  -0.20990  -0.19941
 Alpha virt. eigenvalues --    0.52200   0.66983   0.91285   0.91309   0.93607
 Alpha virt. eigenvalues --    0.94725   0.94827   0.97634   1.02100   1.03293
 Alpha virt. eigenvalues --    1.13103   1.13573   1.20749   1.20751   1.29439

 Mulliken charges and spin densities:
               1          2
     1  O   -0.203911   0.599682
     2  O   -0.296089   0.900318
     3  O   -0.296089   0.900318
     4  O   -0.203911   0.599682
 Sum of Mulliken charges =  -1.00000   3.00000

 Dipole moment (field-independent basis, Debye):
    X=             -0.0000    Y=              0.0000    Z=             -0.0000  Tot=              0.0000
 Quadrupole moment (field-independent basis, Debye-Ang):
   XX=            -21.7113   YY=            -22.9935   ZZ=            -38.3968
   XY=              0.0000   XZ=              0.0000   YZ=              0.0000

 .1257781\CCSD=-300.134856\CCSD(T)=-300.1834247\RMSD=9.264e-09\PG=D*H [
 Normal termination of Gaussian 16 at Sat Jan 14 23:20:35 2023.
