 Gaussian 16, Revision A.03,
 Gaussian 16:  ES64L-G16RevA.03 25-Dec-2016

 ---------------------------------------------------------------
 #p ROCCSD(T)/cc-pVTZ Guess=Read SCF=(VeryTight,CDIIS,VShift=10)
 ---------------------------------------------------------------

 ---------
 O2_O2_228
 ---------
 Symbolic Z-matrix:
 Charge = -1 Multiplicity = 4

                         Standard orientation:
 ---------------------------------------------------------------------
 Center     Atomic      Atomic             Coordinates (Angstroms)
 Number     Number       Type             X           Y           Z
 ---------------------------------------------------------------------
      1          8           0        0.000000    0.000000    2.406654
      2          8           0        0.000000    0.000000    3.759034
      3          8           0        0.000000    0.000000   -3.759034
      4          8           0        0.000000    0.000000   -2.406654
 ---------------------------------------------------------------------

 SCF Done:  E(ROHF) =  -299.196460685     A.U. after    7 cycles
 E2 =    -0.9845643681D+00 EUMP2 =    -0.30018102505331D+03
 CCSD(T)
 CCSD(T)= -0.30022463591D+03

 Unable to determine electronic state:  an orbital has unidentified symmetry.
 Alpha  occ. eigenvalues --  -20.49844 -20.49844 -20.44736 -20.44736  -1.32584
 Alpha  occ. eigenvalues --   -1.32584  -0.95399  -0.95395  -0.52627  -0.52626
 Alpha  occ. eigenvalues --   -0.49117  -0.49098  -0.45223  -0.45199  -0.29339
 Alpha  occ. eigenvalues --   -0.29334  -0.27791  -0.27660
 Alpha virt. eigenvalues --    0.49338   0.49972   0.89200   0.89932   0.89998
 Alpha virt. eigenvalues --    0.90005   0.92070   0.92106   0.96453   0.98250
 Alpha virt. eigenvalues --    1.01079   1.01194   1.01539   1.01774   1.11910

 Mulliken charges and spin densities:
               1          2
     1  O   -0.329628   0.566738
     2  O   -0.170372   0.933262
     3  O   -0.170372   0.933262
     4  O   -0.329628   0.566738
 Sum of Mulliken charges =  -1.00000   3.00000

 Dipole moment (field-independent basis, Debye):
    X=             -0.0000    Y=             -0.0000    Z=             -0.0000  Tot=              0.0000
 Quadrupole moment (field-independent basis, Debye-Ang):
   XX=            -21.8684   YY=            -23.0060   ZZ=            -65.3288
   XY=              0.0000   XZ=              0.0000   YZ=              0.0000

 670084\CCSD=-300.176673\CCSD(T)=-300.2246359\RMSD=5.509e-09\PG=D*H [C*
 Normal termination of Gaussian 16 at Mon Jan 16 03:45:31 2023.
