 Gaussian 16, Revision A.03,
 Gaussian 16:  ES64L-G16RevA.03 25-Dec-2016

 ---------------------------------------------------------------
 #p ROCCSD(T)/cc-pVTZ Guess=Read SCF=(VeryTight,CDIIS,VShift=10)
 ---------------------------------------------------------------

 --------
 O2_O2_68
 --------
 Symbolic Z-matrix:
 Charge = -1 Multiplicity = 4

                         Standard orientation:
 ---------------------------------------------------------------------
 Center     Atomic      Atomic             Coordinates (Angstroms)
 Number     Number       Type             X           Y           Z
 ---------------------------------------------------------------------
      1          8           0        0.000000    0.000000    1.273967
      2          8           0        0.000000    0.000000    2.626348
      3          8           0        0.000000    0.000000   -2.626348
      4          8           0        0.000000    0.000000   -1.273967
 ---------------------------------------------------------------------

 SCF Done:  E(ROHF) =  -299.206589232     A.U. after   11 cycles
 E2 =    -0.9764932275D+00 EUMP2 =    -0.30018308245924D+03
 CCSD(T)
 CCSD(T)= -0.30023462655D+03

 Unable to determine electronic state:  an orbital has unidentified symmetry.
 Alpha  occ. eigenvalues --  -20.46515 -20.46515 -20.42664 -20.42663  -1.30060
 Alpha  occ. eigenvalues --   -1.29853  -0.93423  -0.92043  -0.49930  -0.49706
 Alpha  occ. eigenvalues --   -0.46601  -0.46249  -0.44012  -0.40647  -0.27390
 Alpha  occ. eigenvalues --   -0.26173  -0.25492  -0.24629
 Alpha virt. eigenvalues --    0.50311   0.57732   0.90558   0.91580   0.92436
 Alpha virt. eigenvalues --    0.92707   0.92853   0.95305   0.97814   0.99425
 Alpha virt. eigenvalues --    0.99738   1.12687   1.12818   1.13634   1.14301

 Mulliken charges and spin densities:
               1          2
     1  O   -0.285702   0.600015
     2  O   -0.214298   0.899985
     3  O   -0.214298   0.899985
     4  O   -0.285702   0.600015
 Sum of Mulliken charges =  -1.00000   3.00000

 Dipole moment (field-independent basis, Debye):
    X=             -0.0000    Y=             -0.0000    Z=              0.0000  Tot=              0.0000
 Quadrupole moment (field-independent basis, Debye-Ang):
   XX=            -21.8754   YY=            -23.0731   ZZ=            -42.2446
   XY=              0.0000   XZ=              0.0000   YZ=              0.0000

 0.1769372\CCSD=-300.1868118\CCSD(T)=-300.2346266\RMSD=2.244e-09\PG=D*H
 Normal termination of Gaussian 16 at Sun Jan 15 02:11:22 2023.
