 Gaussian 16, Revision A.03,
 Gaussian 16:  ES64L-G16RevA.03 25-Dec-2016

 ---------------------------------------------------------------
 #p ROCCSD(T)/cc-pVTZ Guess=Read SCF=(VeryTight,CDIIS,VShift=10)
 ---------------------------------------------------------------

 --------
 O2_O2_85
 --------
 Symbolic Z-matrix:
 Charge = -1 Multiplicity = 4

                         Standard orientation:
 ---------------------------------------------------------------------
 Center     Atomic      Atomic             Coordinates (Angstroms)
 Number     Number       Type             X           Y           Z
 ---------------------------------------------------------------------
      1          8           0        0.000000    0.000000    1.394315
      2          8           0        0.000000    0.000000    2.746695
      3          8           0        0.000000    0.000000   -2.746695
      4          8           0        0.000000    0.000000   -1.394315
 ---------------------------------------------------------------------

 SCF Done:  E(ROHF) =  -299.204045234     A.U. after   11 cycles
 E2 =    -0.9782622952D+00 EUMP2 =    -0.30018230752875D+03
 CCSD(T)
 CCSD(T)= -0.30023232425D+03

 Unable to determine electronic state:  an orbital has unidentified symmetry.
 Alpha  occ. eigenvalues --  -20.47079 -20.47079 -20.42965 -20.42965  -1.30403
 Alpha  occ. eigenvalues --   -1.30299  -0.93501  -0.92744  -0.50315  -0.50189
 Alpha  occ. eigenvalues --   -0.46930  -0.46743  -0.43832  -0.41744  -0.27537
 Alpha  occ. eigenvalues --   -0.26798  -0.25710  -0.25239
 Alpha virt. eigenvalues --    0.49521   0.56500   0.90825   0.91452   0.92302
 Alpha virt. eigenvalues --    0.92624   0.92670   0.93411   0.94825   0.98336
 Alpha virt. eigenvalues --    0.99648   1.10119   1.10307   1.13479   1.13980

 Mulliken charges and spin densities:
               1          2
     1  O   -0.295762   0.594587
     2  O   -0.204238   0.905413
     3  O   -0.204238   0.905413
     4  O   -0.295762   0.594587
 Sum of Mulliken charges =  -1.00000   3.00000

 Dipole moment (field-independent basis, Debye):
    X=             -0.0000    Y=              0.0000    Z=             -0.0000  Tot=              0.0000
 Quadrupole moment (field-independent basis, Debye-Ang):
   XX=            -21.8758   YY=            -23.0557   ZZ=            -44.0345
   XY=              0.0000   XZ=              0.0000   YZ=              0.0000

 745814\CCSD=-300.1844671\CCSD(T)=-300.2323242\RMSD=4.407e-09\PG=D*H [C
 Normal termination of Gaussian 16 at Sun Jan 15 02:55:44 2023.
