 Gaussian 16, Revision A.03,
 Gaussian 16:  ES64L-G16RevA.03 25-Dec-2016

 ---------------------------------------------------------------
 #p ROCCSD(T)/cc-pVTZ Guess=Read SCF=(VeryTight,CDIIS,VShift=10)
 ---------------------------------------------------------------

 --------
 O2_O2_18
 --------
 Symbolic Z-matrix:
 Charge = -1 Multiplicity = 4

                         Standard orientation:
 ---------------------------------------------------------------------
 Center     Atomic      Atomic             Coordinates (Angstroms)
 Number     Number       Type             X           Y           Z
 ---------------------------------------------------------------------
      1          8           0        0.000000    0.000000    0.920002
      2          8           0        0.000000    0.000000    2.272383
      3          8           0        0.000000    0.000000   -2.272383
      4          8           0        0.000000    0.000000   -0.920002
 ---------------------------------------------------------------------

 SCF Done:  E(ROHF) =  -299.191117463     A.U. after   10 cycles
 E2 =    -0.9676437486D+00 EUMP2 =    -0.30015876121114D+03
 CCSD(T)
 CCSD(T)= -0.30021667986D+03

 Unable to determine electronic state:  an orbital has unidentified symmetry.
 Alpha  occ. eigenvalues --  -20.43783 -20.43782 -20.41059 -20.41057  -1.29369
 Alpha  occ. eigenvalues --   -1.27697  -0.95777  -0.87757  -0.48801  -0.47515
 Alpha  occ. eigenvalues --   -0.46833  -0.46026  -0.43855  -0.33197  -0.27972
 Alpha  occ. eigenvalues --   -0.25512  -0.22675  -0.21425
 Alpha virt. eigenvalues --    0.52176   0.63894   0.90584   0.91781   0.93124
 Alpha virt. eigenvalues --    0.94126   0.94179   0.96997   1.00274   1.01681
 Alpha virt. eigenvalues --    1.13502   1.14118   1.19480   1.19509   1.25456

 Mulliken charges and spin densities:
               1          2
     1  O   -0.230346   0.606448
     2  O   -0.269654   0.893552
     3  O   -0.269654   0.893552
     4  O   -0.230346   0.606448
 Sum of Mulliken charges =  -1.00000   3.00000

 Dipole moment (field-independent basis, Debye):
    X=             -0.0000    Y=             -0.0000    Z=             -0.0000  Tot=              0.0000
 Quadrupole moment (field-independent basis, Debye-Ang):
   XX=            -21.7998   YY=            -23.0636   ZZ=            -38.5997
   XY=              0.0000   XZ=              0.0000   YZ=              0.0000

 0.1591989\CCSD=-300.1687305\CCSD(T)=-300.2166799\RMSD=4.212e-09\PG=D*H
 Normal termination of Gaussian 16 at Sat Jan 14 23:55:29 2023.
