 Gaussian 16, Revision A.03,
 Gaussian 16:  ES64L-G16RevA.03 25-Dec-2016

 ---------------------------------------------------------------
 #p ROCCSD(T)/cc-pVTZ Guess=Read SCF=(VeryTight,CDIIS,VShift=10)
 ---------------------------------------------------------------

 -------
 O2_O2_7
 -------
 Symbolic Z-matrix:
 Charge = -1 Multiplicity = 4

                         Standard orientation:
 ---------------------------------------------------------------------
 Center     Atomic      Atomic             Coordinates (Angstroms)
 Number     Number       Type             X           Y           Z
 ---------------------------------------------------------------------
      1          8           0        0.000000    0.000000    0.842130
      2          8           0        0.000000    0.000000    2.194511
      3          8           0        0.000000    0.000000   -2.194511
      4          8           0        0.000000    0.000000   -0.842130
 ---------------------------------------------------------------------

 SCF Done:  E(ROHF) =  -299.165337017     A.U. after   10 cycles
 E2 =    -0.9656574003D+00 EUMP2 =    -0.30013099441754D+03
 CCSD(T)
 CCSD(T)= -0.30019036045D+03

 Unable to determine electronic state:  an orbital has unidentified symmetry.
 Alpha  occ. eigenvalues --  -20.42684 -20.42684 -20.40496 -20.40494  -1.29650
 Alpha  occ. eigenvalues --   -1.26884  -0.97730  -0.85970  -0.48719  -0.48133
 Alpha  occ. eigenvalues --   -0.46733  -0.46332  -0.42967  -0.29654  -0.28637
 Alpha  occ. eigenvalues --   -0.25808  -0.21279  -0.20195
 Alpha virt. eigenvalues --    0.52232   0.66438   0.91122   0.91401   0.93544
 Alpha virt. eigenvalues --    0.94633   0.94738   0.97526   1.01801   1.03019
 Alpha virt. eigenvalues --    1.13180   1.13688   1.20573   1.20577   1.28924

 Mulliken charges and spin densities:
               1          2
     1  O   -0.208688   0.601093
     2  O   -0.291312   0.898907
     3  O   -0.291312   0.898907
     4  O   -0.208688   0.601093
 Sum of Mulliken charges =  -1.00000   3.00000

 Dipole moment (field-independent basis, Debye):
    X=             -0.0000    Y=              0.0000    Z=             -0.0000  Tot=              0.0000
 Quadrupole moment (field-independent basis, Debye-Ang):
   XX=            -21.7288   YY=            -23.0080   ZZ=            -38.3926
   XY=              0.0000   XZ=              0.0000   YZ=              0.0000

 327587\CCSD=-300.1419356\CCSD(T)=-300.1903604\RMSD=9.407e-09\PG=D*H [C
 Normal termination of Gaussian 16 at Sat Jan 14 23:25:53 2023.
