 Gaussian 16, Revision A.03,
 Gaussian 16:  ES64L-G16RevA.03 25-Dec-2016

 ---------------------------------------------------------------
 #p ROCCSD(T)/cc-pVTZ Guess=Read SCF=(VeryTight,CDIIS,VShift=10)
 ---------------------------------------------------------------

 ---------
 O2_O2_197
 ---------
 Symbolic Z-matrix:
 Charge = -1 Multiplicity = 4

                         Standard orientation:
 ---------------------------------------------------------------------
 Center     Atomic      Atomic             Coordinates (Angstroms)
 Number     Number       Type             X           Y           Z
 ---------------------------------------------------------------------
      1          8           0        0.000000    0.000000    2.187196
      2          8           0        0.000000    0.000000    3.539576
      3          8           0        0.000000    0.000000   -3.539576
      4          8           0        0.000000    0.000000   -2.187196
 ---------------------------------------------------------------------

 SCF Done:  E(ROHF) =  -299.196808006     A.U. after    8 cycles
 E2 =    -0.9837390842D+00 EUMP2 =    -0.30018054709069D+03
 CCSD(T)
 CCSD(T)= -0.30022497936D+03

 Unable to determine electronic state:  an orbital has unidentified symmetry.
 Alpha  occ. eigenvalues --  -20.49418 -20.49418 -20.44419 -20.44419  -1.32217
 Alpha  occ. eigenvalues --   -1.32216  -0.95034  -0.95021  -0.52244  -0.52241
 Alpha  occ. eigenvalues --   -0.48748  -0.48731  -0.44865  -0.44791  -0.28989
 Alpha  occ. eigenvalues --   -0.28971  -0.27425  -0.27304
 Alpha virt. eigenvalues --    0.49181   0.50857   0.88720   0.90325   0.90352
 Alpha virt. eigenvalues --    0.90620   0.92387   0.92476   0.95471   1.00898
 Alpha virt. eigenvalues --    1.01297   1.01741   1.01763   1.02298   1.12260

 Mulliken charges and spin densities:
               1          2
     1  O   -0.325393   0.570570
     2  O   -0.174607   0.929430
     3  O   -0.174607   0.929430
     4  O   -0.325393   0.570570
 Sum of Mulliken charges =  -1.00000   3.00000

 Dipole moment (field-independent basis, Debye):
    X=             -0.0000    Y=              0.0000    Z=             -0.0000  Tot=              0.0000
 Quadrupole moment (field-independent basis, Debye-Ang):
   XX=            -21.8695   YY=            -23.0073   ZZ=            -59.8276
   XY=              0.0000   XZ=              0.0000   YZ=              0.0000

 .1673363\CCSD=-300.1770451\CCSD(T)=-300.2249794\RMSD=3.241e-09\PG=D*H
 Normal termination of Gaussian 16 at Sun Jan 15 08:03:52 2023.
