 Gaussian 16, Revision A.03,
 Gaussian 16:  ES64L-G16RevA.03 25-Dec-2016

 ---------------------------------------------------------------
 #p ROCCSD(T)/cc-pVTZ Guess=Read SCF=(VeryTight,CDIIS,VShift=10)
 ---------------------------------------------------------------

 ---------
 O2_O2_257
 ---------
 Symbolic Z-matrix:
 Charge = -1 Multiplicity = 4

                         Standard orientation:
 ---------------------------------------------------------------------
 Center     Atomic      Atomic             Coordinates (Angstroms)
 Number     Number       Type             X           Y           Z
 ---------------------------------------------------------------------
      1          8           0        0.000000    0.000000    2.611954
      2          8           0        0.000000    0.000000    3.964334
      3          8           0        0.000000    0.000000   -3.964334
      4          8           0        0.000000    0.000000   -2.611954
 ---------------------------------------------------------------------

 SCF Done:  E(ROHF) =  -299.196285598     A.U. after    7 cycles
 E2 =    -0.9852126522D+00 EUMP2 =    -0.30018149824995D+03
 CCSD(T)
 CCSD(T)= -0.30022446918D+03

 Unable to determine electronic state:  an orbital has unidentified symmetry.
 Alpha  occ. eigenvalues --  -20.50188 -20.50188 -20.45000 -20.45000  -1.32885
 Alpha  occ. eigenvalues --   -1.32885  -0.95699  -0.95697  -0.52940  -0.52939
 Alpha  occ. eigenvalues --   -0.49418  -0.49399  -0.45526  -0.45519  -0.29630
 Alpha  occ. eigenvalues --   -0.29629  -0.28086  -0.27953
 Alpha virt. eigenvalues --    0.49232   0.49441   0.89188   0.89435   0.89724
 Alpha virt. eigenvalues --    0.89726   0.91795   0.91817   0.96662   0.97187
 Alpha virt. eigenvalues --    1.00812   1.00839   1.01276   1.01430   1.11623

 Mulliken charges and spin densities:
               1          2
     1  O   -0.332890   0.563811
     2  O   -0.167110   0.936189
     3  O   -0.167110   0.936189
     4  O   -0.332890   0.563811
 Sum of Mulliken charges =  -1.00000   3.00000

 Dipole moment (field-independent basis, Debye):
    X=             -0.0000    Y=              0.0000    Z=              0.0000  Tot=              0.0000
 Quadrupole moment (field-independent basis, Debye-Ang):
   XX=            -21.8677   YY=            -23.0057   ZZ=            -70.9115
   XY=              0.0000   XZ=              0.0000   YZ=              0.0000

 668524\CCSD=-300.1764821\CCSD(T)=-300.2244692\RMSD=5.604e-09\PG=D*H [C
 Normal termination of Gaussian 16 at Mon Jan 16 04:21:11 2023.
