 Gaussian 16, Revision A.03,
 Gaussian 16:  ES64L-G16RevA.03 25-Dec-2016

 ---------------------------------------------------------------
 #p ROCCSD(T)/cc-pVTZ Guess=Read SCF=(VeryTight,CDIIS,VShift=10)
 ---------------------------------------------------------------

 ---------
 O2_O2_294
 ---------
 Symbolic Z-matrix:
 Charge = -1 Multiplicity = 4

                         Standard orientation:
 ---------------------------------------------------------------------
 Center     Atomic      Atomic             Coordinates (Angstroms)
 Number     Number       Type             X           Y           Z
 ---------------------------------------------------------------------
      1          8           0        0.000000    0.000000    2.873887
      2          8           0        0.000000    0.000000    4.226267
      3          8           0        0.000000    0.000000   -4.226267
      4          8           0        0.000000    0.000000   -2.873887
 ---------------------------------------------------------------------

 SCF Done:  E(ROHF) =  -299.196152125     A.U. after    7 cycles
 E2 =    -0.9859085023D+00 EUMP2 =    -0.30018206062688D+03
 CCSD(T)
 CCSD(T)= -0.30022434671D+03

 Unable to determine electronic state:  an orbital has unidentified symmetry.
 Alpha  occ. eigenvalues --  -20.50565 -20.50565 -20.45294 -20.45294  -1.33218
 Alpha  occ. eigenvalues --   -1.33217  -0.96031  -0.96030  -0.53285  -0.53285
 Alpha  occ. eigenvalues --   -0.49750  -0.49732  -0.45866  -0.45864  -0.29954
 Alpha  occ. eigenvalues --   -0.29953  -0.28411  -0.28279
 Alpha virt. eigenvalues --    0.48962   0.49001   0.88972   0.89019   0.89418
 Alpha virt. eigenvalues --    0.89418   0.91484   0.91501   0.96464   0.96550
 Alpha virt. eigenvalues --    1.00481   1.00485   1.00953   1.01084   1.11304

 Mulliken charges and spin densities:
               1          2
     1  O   -0.336272   0.560773
     2  O   -0.163728   0.939227
     3  O   -0.163728   0.939227
     4  O   -0.336272   0.560773
 Sum of Mulliken charges =  -1.00000   3.00000

 Dipole moment (field-independent basis, Debye):
    X=             -0.0000    Y=              0.0000    Z=              0.0000  Tot=              0.0000
 Quadrupole moment (field-independent basis, Debye-Ang):
   XX=            -21.8671   YY=            -23.0057   ZZ=            -78.6466
   XY=              0.0000   XZ=              0.0000   YZ=              0.0000

 667421\CCSD=-300.1763335\CCSD(T)=-300.2243467\RMSD=5.496e-09\PG=D*H [C
 Normal termination of Gaussian 16 at Mon Jan 16 05:06:13 2023.
