 Gaussian 16, Revision A.03,
 Gaussian 16:  ES64L-G16RevA.03 25-Dec-2016

 ---------------------------------------------------------------
 #p ROCCSD(T)/cc-pVTZ Guess=Read SCF=(VeryTight,CDIIS,VShift=10)
 ---------------------------------------------------------------

 ---------
 O2_O2_215
 ---------
 Symbolic Z-matrix:
 Charge = -1 Multiplicity = 4

                         Standard orientation:
 ---------------------------------------------------------------------
 Center     Atomic      Atomic             Coordinates (Angstroms)
 Number     Number       Type             X           Y           Z
 ---------------------------------------------------------------------
      1          8           0        0.000000    0.000000    2.314623
      2          8           0        0.000000    0.000000    3.667003
      3          8           0        0.000000    0.000000   -3.667003
      4          8           0        0.000000    0.000000   -2.314623
 ---------------------------------------------------------------------

 SCF Done:  E(ROHF) =  -299.196577994     A.U. after    7 cycles
 E2 =    -0.9842369226D+00 EUMP2 =    -0.30018081491688D+03
 CCSD(T)
 CCSD(T)= -0.30022475043D+03

 Unable to determine electronic state:  an orbital has unidentified symmetry.
 Alpha  occ. eigenvalues --  -20.49673 -20.49673 -20.44608 -20.44608  -1.32437
 Alpha  occ. eigenvalues --   -1.32436  -0.95252  -0.95245  -0.52473  -0.52472
 Alpha  occ. eigenvalues --   -0.48969  -0.48951  -0.45077  -0.45038  -0.29197
 Alpha  occ. eigenvalues --   -0.29189  -0.27644  -0.27516
 Alpha virt. eigenvalues --    0.49317   0.50296   0.89091   0.90131   0.90144
 Alpha virt. eigenvalues --    0.90210   0.92201   0.92252   0.96149   0.99090
 Alpha virt. eigenvalues --    1.01187   1.01393   1.01647   1.01966   1.12050

 Mulliken charges and spin densities:
               1          2
     1  O   -0.327956   0.568245
     2  O   -0.172044   0.931755
     3  O   -0.172044   0.931755
     4  O   -0.327956   0.568245
 Sum of Mulliken charges =  -1.00000   3.00000

 Dipole moment (field-independent basis, Debye):
    X=             -0.0000    Y=             -0.0000    Z=              0.0000  Tot=              0.0000
 Quadrupole moment (field-independent basis, Debye-Ang):
   XX=            -21.8688   YY=            -23.0063   ZZ=            -62.9633
   XY=              0.0000   XZ=              0.0000   YZ=              0.0000

 .1671171\CCSD=-300.1767993\CCSD(T)=-300.2247504\RMSD=6.694e-09\PG=D*H
 Normal termination of Gaussian 16 at Sun Jan 15 08:49:56 2023.
