 Gaussian 16, Revision A.03,
 Gaussian 16:  ES64L-G16RevA.03 25-Dec-2016

 ---------------------------------------------------------------
 #p ROCCSD(T)/cc-pVTZ Guess=Read SCF=(VeryTight,CDIIS,VShift=10)
 ---------------------------------------------------------------

 ---------
 O2_O2_178
 ---------
 Symbolic Z-matrix:
 Charge = -1 Multiplicity = 4

                         Standard orientation:
 ---------------------------------------------------------------------
 Center     Atomic      Atomic             Coordinates (Angstroms)
 Number     Number       Type             X           Y           Z
 ---------------------------------------------------------------------
      1          8           0        0.000000    0.000000    2.052690
      2          8           0        0.000000    0.000000    3.405070
      3          8           0        0.000000    0.000000   -3.405070
      4          8           0        0.000000    0.000000   -2.052690
 ---------------------------------------------------------------------

 SCF Done:  E(ROHF) =  -299.197181087     A.U. after    8 cycles
 E2 =    -0.9831499095D+00 EUMP2 =    -0.30018033099691D+03
 CCSD(T)
 CCSD(T)= -0.30022536110D+03

 Unable to determine electronic state:  an orbital has unidentified symmetry.
 Alpha  occ. eigenvalues --  -20.49123 -20.49123 -20.44207 -20.44207  -1.31966
 Alpha  occ. eigenvalues --   -1.31964  -0.94786  -0.94760  -0.51981  -0.51976
 Alpha  occ. eigenvalues --   -0.48494  -0.48481  -0.44631  -0.44493  -0.28754
 Alpha  occ. eigenvalues --   -0.28717  -0.27169  -0.27063
 Alpha virt. eigenvalues --    0.48888   0.51590   0.87911   0.90540   0.90597
 Alpha virt. eigenvalues --    0.91011   0.92582   0.92749   0.94571   1.01319
 Alpha virt. eigenvalues --    1.01802   1.02252   1.02782   1.03980   1.12504

 Mulliken charges and spin densities:
               1          2
     1  O   -0.322328   0.573369
     2  O   -0.177672   0.926631
     3  O   -0.177672   0.926631
     4  O   -0.322328   0.573369
 Sum of Mulliken charges =  -1.00000   3.00000

 Dipole moment (field-independent basis, Debye):
    X=             -0.0000    Y=             -0.0000    Z=             -0.0000  Tot=              0.0000
 Quadrupole moment (field-independent basis, Debye-Ang):
   XX=            -21.8704   YY=            -23.0094   ZZ=            -56.6936
   XY=              0.0000   XZ=              0.0000   YZ=              0.0000

 677031\CCSD=-300.1774435\CCSD(T)=-300.2253611\RMSD=3.783e-09\PG=D*H [C
 Normal termination of Gaussian 16 at Sun Jan 15 07:11:07 2023.
