 Gaussian 16, Revision A.03,
 Gaussian 16:  ES64L-G16RevA.03 25-Dec-2016

 ---------------------------------------------------------------
 #p ROCCSD(T)/cc-pVTZ Guess=Read SCF=(VeryTight,CDIIS,VShift=10)
 ---------------------------------------------------------------

 ---------
 O2_O2_185
 ---------
 Symbolic Z-matrix:
 Charge = -1 Multiplicity = 4

                         Standard orientation:
 ---------------------------------------------------------------------
 Center     Atomic      Atomic             Coordinates (Angstroms)
 Number     Number       Type             X           Y           Z
 ---------------------------------------------------------------------
      1          8           0        0.000000    0.000000    2.102244
      2          8           0        0.000000    0.000000    3.454625
      3          8           0        0.000000    0.000000   -3.454625
      4          8           0        0.000000    0.000000   -2.102244
 ---------------------------------------------------------------------

 SCF Done:  E(ROHF) =  -299.197024179     A.U. after    8 cycles
 E2 =    -0.9833752264D+00 EUMP2 =    -0.30018039940546D+03
 CCSD(T)
 CCSD(T)= -0.30022519927D+03

 Unable to determine electronic state:  an orbital has unidentified symmetry.
 Alpha  occ. eigenvalues --  -20.49235 -20.49235 -20.44287 -20.44287  -1.32061
 Alpha  occ. eigenvalues --   -1.32059  -0.94880  -0.94859  -0.52080  -0.52077
 Alpha  occ. eigenvalues --   -0.48590  -0.48575  -0.44718  -0.44608  -0.28842
 Alpha  occ. eigenvalues --   -0.28813  -0.27267  -0.27154
 Alpha virt. eigenvalues --    0.49013   0.51304   0.88265   0.90460   0.90504
 Alpha virt. eigenvalues --    0.90877   0.92511   0.92643   0.94905   1.01327
 Alpha virt. eigenvalues --    1.01801   1.02041   1.02583   1.02679   1.12413

 Mulliken charges and spin densities:
               1          2
     1  O   -0.323505   0.572293
     2  O   -0.176495   0.927707
     3  O   -0.176495   0.927707
     4  O   -0.323505   0.572293
 Sum of Mulliken charges =  -1.00000   3.00000

 Dipole moment (field-independent basis, Debye):
    X=             -0.0000    Y=              0.0000    Z=              0.0000  Tot=              0.0000
 Quadrupole moment (field-independent basis, Debye-Ang):
   XX=            -21.8700   YY=            -23.0085   ZZ=            -57.8272
   XY=              0.0000   XZ=              0.0000   YZ=              0.0000

 00.1675475\CCSD=-300.1772758\CCSD(T)=-300.2251993\RMSD=3.638e-09\PG=D*
 Normal termination of Gaussian 16 at Sun Jan 15 07:29:47 2023.
