 Gaussian 16, Revision A.03,
 Gaussian 16:  ES64L-G16RevA.03 25-Dec-2016

 ---------------------------------------------------------------
 #p ROCCSD(T)/cc-pVTZ Guess=Read SCF=(VeryTight,CDIIS,VShift=10)
 ---------------------------------------------------------------

 ---------
 O2_O2_225
 ---------
 Symbolic Z-matrix:
 Charge = -1 Multiplicity = 4

                         Standard orientation:
 ---------------------------------------------------------------------
 Center     Atomic      Atomic             Coordinates (Angstroms)
 Number     Number       Type             X           Y           Z
 ---------------------------------------------------------------------
      1          8           0        0.000000    0.000000    2.385416
      2          8           0        0.000000    0.000000    3.737796
      3          8           0        0.000000    0.000000   -3.737796
      4          8           0        0.000000    0.000000   -2.385416
 ---------------------------------------------------------------------

 SCF Done:  E(ROHF) =  -299.196484965     A.U. after    7 cycles
 E2 =    -0.9844910177D+00 EUMP2 =    -0.30018097598300D+03
 CCSD(T)
 CCSD(T)= -0.30022465943D+03

 Unable to determine electronic state:  an orbital has unidentified symmetry.
 Alpha  occ. eigenvalues --  -20.49805 -20.49805 -20.44707 -20.44707  -1.32551
 Alpha  occ. eigenvalues --   -1.32551  -0.95366  -0.95361  -0.52592  -0.52591
 Alpha  occ. eigenvalues --   -0.49084  -0.49065  -0.45190  -0.45163  -0.29307
 Alpha  occ. eigenvalues --   -0.29302  -0.27758  -0.27627
 Alpha virt. eigenvalues --    0.49338   0.50041   0.89183   0.89993   0.90029
 Alpha virt. eigenvalues --    0.90037   0.92100   0.92139   0.96397   0.98417
 Alpha virt. eigenvalues --    1.01105   1.01237   1.01565   1.01815   1.11942

 Mulliken charges and spin densities:
               1          2
     1  O   -0.329255   0.567074
     2  O   -0.170745   0.932926
     3  O   -0.170745   0.932926
     4  O   -0.329255   0.567074
 Sum of Mulliken charges =  -1.00000   3.00000

 Dipole moment (field-independent basis, Debye):
    X=             -0.0000    Y=             -0.0000    Z=             -0.0000  Tot=              0.0000
 Quadrupole moment (field-independent basis, Debye-Ang):
   XX=            -21.8685   YY=            -23.0060   ZZ=            -64.7754
   XY=              0.0000   XZ=              0.0000   YZ=              0.0000

 07\CCSD=-300.1766992\CCSD(T)=-300.2246594\RMSD=5.680e-09\PG=D*H [C*(O1
 Normal termination of Gaussian 16 at Mon Jan 16 03:41:56 2023.
