 Gaussian 16, Revision A.03,
 Gaussian 16:  ES64L-G16RevA.03 25-Dec-2016

 ---------------------------------------------------------------
 #p ROCCSD(T)/cc-pVTZ Guess=Read SCF=(VeryTight,CDIIS,VShift=10)
 ---------------------------------------------------------------

 --------
 O2_O2_40
 --------
 Symbolic Z-matrix:
 Charge = -1 Multiplicity = 4

                         Standard orientation:
 ---------------------------------------------------------------------
 Center     Atomic      Atomic             Coordinates (Angstroms)
 Number     Number       Type             X           Y           Z
 ---------------------------------------------------------------------
      1          8           0        0.000000    0.000000    1.075747
      2          8           0        0.000000    0.000000    2.428127
      3          8           0        0.000000    0.000000   -2.428127
      4          8           0        0.000000    0.000000   -1.075747
 ---------------------------------------------------------------------

 SCF Done:  E(ROHF) =  -299.207521166     A.U. after   10 cycles
 E2 =    -0.9722110402D+00 EUMP2 =    -0.30017973220600D+03
 CCSD(T)
 CCSD(T)= -0.30023450003D+03

 Unable to determine electronic state:  an orbital has unidentified symmetry.
 Alpha  occ. eigenvalues --  -20.45283 -20.45283 -20.41963 -20.41962  -1.29527
 Alpha  occ. eigenvalues --   -1.28873  -0.93931  -0.90232  -0.49260  -0.48678
 Alpha  occ. eigenvalues --   -0.46115  -0.45154  -0.45029  -0.37654  -0.27409
 Alpha  occ. eigenvalues --   -0.25310  -0.24651  -0.23200
 Alpha virt. eigenvalues --    0.51497   0.60462   0.90368   0.92198   0.92326
 Alpha virt. eigenvalues --    0.92887   0.93453   0.96164   0.98272   1.00016
 Alpha virt. eigenvalues --    1.13347   1.13729   1.15901   1.16792   1.16861

 Mulliken charges and spin densities:
               1          2
     1  O   -0.260353   0.607407
     2  O   -0.239647   0.892593
     3  O   -0.239647   0.892593
     4  O   -0.260353   0.607407
 Sum of Mulliken charges =  -1.00000   3.00000

 Dipole moment (field-independent basis, Debye):
    X=             -0.0000    Y=              0.0000    Z=             -0.0000  Tot=              0.0000
 Quadrupole moment (field-independent basis, Debye-Ang):
   XX=            -21.8606   YY=            -23.0943   ZZ=            -39.8094
   XY=              0.0000   XZ=              0.0000   YZ=              0.0000

 0.1769709\CCSD=-300.1867561\CCSD(T)=-300.2345\RMSD=9.281e-09\PG=D*H [C
 Normal termination of Gaussian 16 at Sun Jan 15 00:54:16 2023.
