 Gaussian 16, Revision A.03,
 Gaussian 16:  ES64L-G16RevA.03 25-Dec-2016

 ---------------------------------------------------------------
 #p ROCCSD(T)/cc-pVTZ Guess=Read SCF=(VeryTight,CDIIS,VShift=10)
 ---------------------------------------------------------------

 --------
 O2_O2_10
 --------
 Symbolic Z-matrix:
 Charge = -1 Multiplicity = 4

                         Standard orientation:
 ---------------------------------------------------------------------
 Center     Atomic      Atomic             Coordinates (Angstroms)
 Number     Number       Type             X           Y           Z
 ---------------------------------------------------------------------
      1          8           0        0.000000    0.000000    0.863368
      2          8           0        0.000000    0.000000    2.215749
      3          8           0        0.000000    0.000000   -2.215749
      4          8           0        0.000000    0.000000   -0.863368
 ---------------------------------------------------------------------

 SCF Done:  E(ROHF) =  -299.174251273     A.U. after   10 cycles
 E2 =    -0.9661024431D+00 EUMP2 =    -0.30014035371644D+03
 CCSD(T)
 CCSD(T)= -0.30019936928D+03

 Unable to determine electronic state:  an orbital has unidentified symmetry.
 Alpha  occ. eigenvalues --  -20.43016 -20.43016 -20.40650 -20.40648  -1.29526
 Alpha  occ. eigenvalues --   -1.27124  -0.97102  -0.86500  -0.48721  -0.47754
 Alpha  occ. eigenvalues --   -0.46964  -0.46206  -0.43229  -0.30738  -0.28420
 Alpha  occ. eigenvalues --   -0.25713  -0.21692  -0.20558
 Alpha virt. eigenvalues --    0.52251   0.65670   0.90922   0.91524   0.93441
 Alpha virt. eigenvalues --    0.94501   0.94589   0.97372   1.01361   1.02623
 Alpha virt. eigenvalues --    1.13286   1.13838   1.20295   1.20305   1.28088

 Mulliken charges and spin densities:
               1          2
     1  O   -0.215315   0.602954
     2  O   -0.284685   0.897046
     3  O   -0.284685   0.897046
     4  O   -0.215315   0.602954
 Sum of Mulliken charges =  -1.00000   3.00000

 Dipole moment (field-independent basis, Debye):
    X=             -0.0000    Y=              0.0000    Z=             -0.0000  Tot=              0.0000
 Quadrupole moment (field-independent basis, Debye-Ang):
   XX=            -21.7521   YY=            -23.0270   ZZ=            -38.4128
   XY=              0.0000   XZ=              0.0000   YZ=              0.0000

 0.1418186\CCSD=-300.1511206\CCSD(T)=-300.1993693\RMSD=8.816e-09\PG=D*H
 Normal termination of Gaussian 16 at Sat Jan 14 23:33:52 2023.
