 Gaussian 16, Revision A.03,
 Gaussian 16:  ES64L-G16RevA.03 25-Dec-2016

 ---------------------------------------------------------------
 #p ROCCSD(T)/cc-pVTZ Guess=Read SCF=(VeryTight,CDIIS,VShift=10)
 ---------------------------------------------------------------

 --------
 O2_O2_19
 --------
 Symbolic Z-matrix:
 Charge = -1 Multiplicity = 4

                         Standard orientation:
 ---------------------------------------------------------------------
 Center     Atomic      Atomic             Coordinates (Angstroms)
 Number     Number       Type             X           Y           Z
 ---------------------------------------------------------------------
      1          8           0        0.000000    0.000000    0.927082
      2          8           0        0.000000    0.000000    2.279462
      3          8           0        0.000000    0.000000   -2.279462
      4          8           0        0.000000    0.000000   -0.927082
 ---------------------------------------------------------------------

 SCF Done:  E(ROHF) =  -299.192652271     A.U. after    9 cycles
 E2 =    -0.9678554592D+00 EUMP2 =    -0.30016050772973D+03
 CCSD(T)
 CCSD(T)= -0.30021828056D+03

 Unable to determine electronic state:  an orbital has unidentified symmetry.
 Alpha  occ. eigenvalues --  -20.43868 -20.43868 -20.41108 -20.41106  -1.29362
 Alpha  occ. eigenvalues --   -1.27762  -0.95642  -0.87899  -0.48816  -0.47578
 Alpha  occ. eigenvalues --   -0.46728  -0.46015  -0.43926  -0.33465  -0.27927
 Alpha  occ. eigenvalues --   -0.25492  -0.22787  -0.21524
 Alpha virt. eigenvalues --    0.52157   0.63696   0.90557   0.91809   0.93081
 Alpha virt. eigenvalues --    0.94065   0.94141   0.96954   1.00150   1.01576
 Alpha virt. eigenvalues --    1.13523   1.14141   1.19372   1.19402   1.25082

 Mulliken charges and spin densities:
               1          2
     1  O   -0.232005   0.606742
     2  O   -0.267995   0.893258
     3  O   -0.267995   0.893258
     4  O   -0.232005   0.606742
 Sum of Mulliken charges =  -1.00000   3.00000

 Dipole moment (field-independent basis, Debye):
    X=             -0.0000    Y=              0.0000    Z=              0.0000  Tot=              0.0000
 Quadrupole moment (field-independent basis, Debye-Ang):
   XX=            -21.8045   YY=            -23.0669   ZZ=            -38.6348
   XY=              0.0000   XZ=              0.0000   YZ=              0.0000

 0.1608034\CCSD=-300.1703556\CCSD(T)=-300.2182806\RMSD=9.540e-09\PG=D*H
 Normal termination of Gaussian 16 at Sat Jan 14 23:58:07 2023.
