 Gaussian 16, Revision A.03,
 Gaussian 16:  ES64L-G16RevA.03 25-Dec-2016

 ---------------------------------------------------------------
 #p ROCCSD(T)/cc-pVTZ Guess=Read SCF=(VeryTight,CDIIS,VShift=10)
 ---------------------------------------------------------------

 ---------
 O2_O2_110
 ---------
 Symbolic Z-matrix:
 Charge = -1 Multiplicity = 4

                         Standard orientation:
 ---------------------------------------------------------------------
 Center     Atomic      Atomic             Coordinates (Angstroms)
 Number     Number       Type             X           Y           Z
 ---------------------------------------------------------------------
      1          8           0        0.000000    0.000000    1.571298
      2          8           0        0.000000    0.000000    2.923678
      3          8           0        0.000000    0.000000   -2.923678
      4          8           0        0.000000    0.000000   -1.571298
 ---------------------------------------------------------------------

 SCF Done:  E(ROHF) =  -299.200932983     A.U. after    8 cycles
 E2 =    -0.9801339957D+00 EUMP2 =    -0.30018106697906D+03
 CCSD(T)
 CCSD(T)= -0.30022927267D+03

 Unable to determine electronic state:  an orbital has unidentified symmetry.
 Alpha  occ. eigenvalues --  -20.47764 -20.47764 -20.43341 -20.43341  -1.30881
 Alpha  occ. eigenvalues --   -1.30843  -0.93801  -0.93490  -0.50834  -0.50781
 Alpha  occ. eigenvalues --   -0.47399  -0.47333  -0.43877  -0.42850  -0.27841
 Alpha  occ. eigenvalues --   -0.27491  -0.26080  -0.25931
 Alpha virt. eigenvalues --    0.48535   0.54983   0.87310   0.91235   0.91277
 Alpha virt. eigenvalues --    0.91756   0.92892   0.93101   0.94156   0.99553
 Alpha virt. eigenvalues --    1.00440   1.06831   1.07126   1.13176   1.13530

 Mulliken charges and spin densities:
               1          2
     1  O   -0.306247   0.587343
     2  O   -0.193753   0.912657
     3  O   -0.193753   0.912657
     4  O   -0.306247   0.587343
 Sum of Mulliken charges =  -1.00000   3.00000

 Dipole moment (field-independent basis, Debye):
    X=             -0.0000    Y=              0.0000    Z=             -0.0000  Tot=              0.0000
 Quadrupole moment (field-independent basis, Debye-Ang):
   XX=            -21.8746   YY=            -23.0347   ZZ=            -46.9859
   XY=              0.0000   XZ=              0.0000   YZ=              0.0000

 715199\CCSD=-300.1813855\CCSD(T)=-300.2292727\RMSD=8.334e-09\PG=D*H [C
 Normal termination of Gaussian 16 at Sun Jan 15 04:05:13 2023.
