 Gaussian 16, Revision A.03,
 Gaussian 16:  ES64L-G16RevA.03 25-Dec-2016

 ---------------------------------------------------------------
 #p ROCCSD(T)/cc-pVTZ Guess=Read SCF=(VeryTight,CDIIS,VShift=10)
 ---------------------------------------------------------------

 ---------
 O2_O2_238
 ---------
 Symbolic Z-matrix:
 Charge = -1 Multiplicity = 4

                         Standard orientation:
 ---------------------------------------------------------------------
 Center     Atomic      Atomic             Coordinates (Angstroms)
 Number     Number       Type             X           Y           Z
 ---------------------------------------------------------------------
      1          8           0        0.000000    0.000000    2.477447
      2          8           0        0.000000    0.000000    3.829827
      3          8           0        0.000000    0.000000   -3.829827
      4          8           0        0.000000    0.000000   -2.477447
 ---------------------------------------------------------------------

 SCF Done:  E(ROHF) =  -299.196389533     A.U. after    7 cycles
 E2 =    -0.9847998798D+00 EUMP2 =    -0.30018118941316D+03
 CCSD(T)
 CCSD(T)= -0.30022456744D+03

 Unable to determine electronic state:  an orbital has unidentified symmetry.
 Alpha  occ. eigenvalues --  -20.49968 -20.49968 -20.44831 -20.44831  -1.32692
 Alpha  occ. eigenvalues --   -1.32692  -0.95507  -0.95504  -0.52739  -0.52739
 Alpha  occ. eigenvalues --   -0.49225  -0.49206  -0.45332  -0.45315  -0.29444
 Alpha  occ. eigenvalues --   -0.29440  -0.27897  -0.27765
 Alpha virt. eigenvalues --    0.49321   0.49762   0.89225   0.89740   0.89900
 Alpha virt. eigenvalues --    0.89905   0.91972   0.92001   0.96587   0.97786
 Alpha virt. eigenvalues --    1.00989   1.01060   1.01450   1.01645   1.11807

 Mulliken charges and spin densities:
               1          2
     1  O   -0.330822   0.565666
     2  O   -0.169178   0.934334
     3  O   -0.169178   0.934334
     4  O   -0.330822   0.565666
 Sum of Mulliken charges =  -1.00000   3.00000

 Dipole moment (field-independent basis, Debye):
    X=             -0.0000    Y=              0.0000    Z=             -0.0000  Tot=              0.0000
 Quadrupole moment (field-independent basis, Debye-Ang):
   XX=            -21.8681   YY=            -23.0058   ZZ=            -67.2062
   XY=              0.0000   XZ=              0.0000   YZ=              0.0000

 669439\CCSD=-300.1765958\CCSD(T)=-300.2245674\RMSD=5.286e-09\PG=D*H [C
 Normal termination of Gaussian 16 at Mon Jan 16 03:57:35 2023.
