 Gaussian 16, Revision A.03,
 Gaussian 16:  ES64L-G16RevA.03 25-Dec-2016

 ---------------------------------------------------------------
 #p ROCCSD(T)/cc-pVTZ Guess=Read SCF=(VeryTight,CDIIS,VShift=10)
 ---------------------------------------------------------------

 ---------
 O2_O2_189
 ---------
 Symbolic Z-matrix:
 Charge = -1 Multiplicity = 4

                         Standard orientation:
 ---------------------------------------------------------------------
 Center     Atomic      Atomic             Coordinates (Angstroms)
 Number     Number       Type             X           Y           Z
 ---------------------------------------------------------------------
      1          8           0        0.000000    0.000000    2.130562
      2          8           0        0.000000    0.000000    3.482942
      3          8           0        0.000000    0.000000   -3.482942
      4          8           0        0.000000    0.000000   -2.130562
 ---------------------------------------------------------------------

 SCF Done:  E(ROHF) =  -299.196945308     A.U. after    8 cycles
 E2 =    -0.9834995519D+00 EUMP2 =    -0.30018044485955D+03
 CCSD(T)
 CCSD(T)= -0.30022511858D+03

 Unable to determine electronic state:  an orbital has unidentified symmetry.
 Alpha  occ. eigenvalues --  -20.49297 -20.49297 -20.44332 -20.44331  -1.32114
 Alpha  occ. eigenvalues --   -1.32112  -0.94932  -0.94914  -0.52136  -0.52133
 Alpha  occ. eigenvalues --   -0.48644  -0.48628  -0.44767  -0.44671  -0.28892
 Alpha  occ. eigenvalues --   -0.28867  -0.27321  -0.27204
 Alpha virt. eigenvalues --    0.49076   0.51148   0.88438   0.90414   0.90452
 Alpha virt. eigenvalues --    0.90795   0.92470   0.92586   0.95098   1.01322
 Alpha virt. eigenvalues --    1.01793   1.01934   1.02025   1.02481   1.12360

 Mulliken charges and spin densities:
               1          2
     1  O   -0.324152   0.571702
     2  O   -0.175848   0.928298
     3  O   -0.175848   0.928298
     4  O   -0.324152   0.571702
 Sum of Mulliken charges =  -1.00000   3.00000

 Dipole moment (field-independent basis, Debye):
    X=             -0.0000    Y=              0.0000    Z=              0.0000  Tot=              0.0000
 Quadrupole moment (field-independent basis, Debye-Ang):
   XX=            -21.8698   YY=            -23.0080   ZZ=            -58.4860
   XY=              0.0000   XZ=              0.0000   YZ=              0.0000

 00.16747\CCSD=-300.1771916\CCSD(T)=-300.2251186\RMSD=3.522e-09\PG=D*H
 Normal termination of Gaussian 16 at Sun Jan 15 07:40:09 2023.
