 Gaussian 16, Revision A.03,
 Gaussian 16:  ES64L-G16RevA.03 25-Dec-2016

 ---------------------------------------------------------------
 #p ROCCSD(T)/cc-pVTZ Guess=Read SCF=(VeryTight,CDIIS,VShift=10)
 ---------------------------------------------------------------

 ---------
 O2_O2_283
 ---------
 Symbolic Z-matrix:
 Charge = -1 Multiplicity = 4

                         Standard orientation:
 ---------------------------------------------------------------------
 Center     Atomic      Atomic             Coordinates (Angstroms)
 Number     Number       Type             X           Y           Z
 ---------------------------------------------------------------------
      1          8           0        0.000000    0.000000    2.796015
      2          8           0        0.000000    0.000000    4.148395
      3          8           0        0.000000    0.000000   -4.148395
      4          8           0        0.000000    0.000000   -2.796015
 ---------------------------------------------------------------------

 SCF Done:  E(ROHF) =  -299.196185224     A.U. after    7 cycles
 E2 =    -0.9857147315D+00 EUMP2 =    -0.30018189995582D+03
 CCSD(T)
 CCSD(T)= -0.30022437645D+03

 Unable to determine electronic state:  an orbital has unidentified symmetry.
 Alpha  occ. eigenvalues --  -20.50459 -20.50459 -20.45211 -20.45211  -1.33124
 Alpha  occ. eigenvalues --   -1.33124  -0.95937  -0.95937  -0.53188  -0.53188
 Alpha  occ. eigenvalues --   -0.49656  -0.49638  -0.45770  -0.45768  -0.29863
 Alpha  occ. eigenvalues --   -0.29862  -0.28320  -0.28187
 Alpha virt. eigenvalues --    0.49048   0.49114   0.89045   0.89124   0.89504
 Alpha virt. eigenvalues --    0.89505   0.91572   0.91589   0.96546   0.96698
 Alpha virt. eigenvalues --    1.00576   1.00583   1.01045   1.01180   1.11394

 Mulliken charges and spin densities:
               1          2
     1  O   -0.335346   0.561607
     2  O   -0.164654   0.938393
     3  O   -0.164654   0.938393
     4  O   -0.335346   0.561607
 Sum of Mulliken charges =  -1.00000   3.00000

 Dipole moment (field-independent basis, Debye):
    X=             -0.0000    Y=              0.0000    Z=              0.0000  Tot=              0.0000
 Quadrupole moment (field-independent basis, Debye-Ang):
   XX=            -21.8673   YY=            -23.0057   ZZ=            -76.2754
   XY=              0.0000   XZ=              0.0000   YZ=              0.0000

 SD=-300.1763705\CCSD(T)=-300.2243764\RMSD=5.728e-09\PG=D*H [C*(O1O1.O1
 Normal termination of Gaussian 16 at Mon Jan 16 04:51:39 2023.
