 Gaussian 16, Revision A.03,
 Gaussian 16:  ES64L-G16RevA.03 25-Dec-2016

 ---------------------------------------------------------------
 #p ROCCSD(T)/cc-pVTZ Guess=Read SCF=(VeryTight,CDIIS,VShift=10)
 ---------------------------------------------------------------

 ---------
 O2_O2_163
 ---------
 Symbolic Z-matrix:
 Charge = -1 Multiplicity = 4

                         Standard orientation:
 ---------------------------------------------------------------------
 Center     Atomic      Atomic             Coordinates (Angstroms)
 Number     Number       Type             X           Y           Z
 ---------------------------------------------------------------------
      1          8           0        0.000000    0.000000    1.946500
      2          8           0        0.000000    0.000000    3.298880
      3          8           0        0.000000    0.000000   -3.298880
      4          8           0        0.000000    0.000000   -1.946500
 ---------------------------------------------------------------------

 SCF Done:  E(ROHF) =  -299.197614680     A.U. after    8 cycles
 E2 =    -0.9826303506D+00 EUMP2 =    -0.30018024503015D+03
 CCSD(T)
 CCSD(T)= -0.30022581462D+03

 Unable to determine electronic state:  an orbital has unidentified symmetry.
 Alpha  occ. eigenvalues --  -20.48868 -20.48868 -20.44031 -20.44031  -1.31753
 Alpha  occ. eigenvalues --   -1.31748  -0.94579  -0.94533  -0.51757  -0.51749
 Alpha  occ. eigenvalues --   -0.48276  -0.48268  -0.44443  -0.44225  -0.28559
 Alpha  occ. eigenvalues --   -0.28496  -0.26947  -0.26861
 Alpha virt. eigenvalues --    0.48585   0.52257   0.86984   0.90714   0.90812
 Alpha virt. eigenvalues --    0.91240   0.92723   0.92997   0.93940   1.01220
 Alpha virt. eigenvalues --    1.01732   1.02816   1.03313   1.07494   1.12706

 Mulliken charges and spin densities:
               1          2
     1  O   -0.319594   0.575867
     2  O   -0.180406   0.924133
     3  O   -0.180406   0.924133
     4  O   -0.319594   0.575867
 Sum of Mulliken charges =  -1.00000   3.00000

 Dipole moment (field-independent basis, Debye):
    X=             -0.0000    Y=              0.0000    Z=             -0.0000  Tot=              0.0000
 Quadrupole moment (field-independent basis, Debye-Ang):
   XX=            -21.8712   YY=            -23.0120   ZZ=            -54.3476
   XY=              0.0000   XZ=              0.0000   YZ=              0.0000

 681397\CCSD=-300.1779075\CCSD(T)=-300.2258146\RMSD=3.916e-09\PG=D*H [C
 Normal termination of Gaussian 16 at Sun Jan 15 06:28:01 2023.
