 Gaussian 16, Revision A.03,
 Gaussian 16:  ES64L-G16RevA.03 25-Dec-2016

 ---------------------------------------------------------------
 #p ROCCSD(T)/cc-pVTZ Guess=Read SCF=(VeryTight,CDIIS,VShift=10)
 ---------------------------------------------------------------

 ---------
 O2_O2_236
 ---------
 Symbolic Z-matrix:
 Charge = -1 Multiplicity = 4

                         Standard orientation:
 ---------------------------------------------------------------------
 Center     Atomic      Atomic             Coordinates (Angstroms)
 Number     Number       Type             X           Y           Z
 ---------------------------------------------------------------------
      1          8           0        0.000000    0.000000    2.463288
      2          8           0        0.000000    0.000000    3.815668
      3          8           0        0.000000    0.000000   -3.815668
      4          8           0        0.000000    0.000000   -2.463288
 ---------------------------------------------------------------------

 SCF Done:  E(ROHF) =  -299.196402678     A.U. after    7 cycles
 E2 =    -0.9847538474D+00 EUMP2 =    -0.30018115652525D+03
 CCSD(T)
 CCSD(T)= -0.30022458002D+03

 Unable to determine electronic state:  an orbital has unidentified symmetry.
 Alpha  occ. eigenvalues --  -20.49944 -20.49944 -20.44812 -20.44812  -1.32671
 Alpha  occ. eigenvalues --   -1.32671  -0.95485  -0.95482  -0.52717  -0.52717
 Alpha  occ. eigenvalues --   -0.49204  -0.49185  -0.45310  -0.45293  -0.29423
 Alpha  occ. eigenvalues --   -0.29420  -0.27876  -0.27744
 Alpha virt. eigenvalues --    0.49326   0.49801   0.89223   0.89776   0.89920
 Alpha virt. eigenvalues --    0.89925   0.91992   0.92022   0.96566   0.97869
 Alpha virt. eigenvalues --    1.01007   1.01086   1.01468   1.01670   1.11827

 Mulliken charges and spin densities:
               1          2
     1  O   -0.330590   0.565875
     2  O   -0.169410   0.934125
     3  O   -0.169410   0.934125
     4  O   -0.330590   0.565875
 Sum of Mulliken charges =  -1.00000   3.00000

 Dipole moment (field-independent basis, Debye):
    X=             -0.0000    Y=              0.0000    Z=             -0.0000  Tot=              0.0000
 Quadrupole moment (field-independent basis, Debye-Ang):
   XX=            -21.8682   YY=            -23.0058   ZZ=            -66.8267
   XY=              0.0000   XZ=              0.0000   YZ=              0.0000

 669557\CCSD=-300.1766101\CCSD(T)=-300.22458\RMSD=5.294e-09\PG=D*H [C*(
 Normal termination of Gaussian 16 at Mon Jan 16 03:55:11 2023.
