 Gaussian 16, Revision A.03,
 Gaussian 16:  ES64L-G16RevA.03 25-Dec-2016

 ---------------------------------------------------------------
 #p ROCCSD(T)/cc-pVTZ Guess=Read SCF=(VeryTight,CDIIS,VShift=10)
 ---------------------------------------------------------------

 ---------
 O2_O2_186
 ---------
 Symbolic Z-matrix:
 Charge = -1 Multiplicity = 4

                         Standard orientation:
 ---------------------------------------------------------------------
 Center     Atomic      Atomic             Coordinates (Angstroms)
 Number     Number       Type             X           Y           Z
 ---------------------------------------------------------------------
      1          8           0        0.000000    0.000000    2.109323
      2          8           0        0.000000    0.000000    3.461704
      3          8           0        0.000000    0.000000   -3.461704
      4          8           0        0.000000    0.000000   -2.109323
 ---------------------------------------------------------------------

 SCF Done:  E(ROHF) =  -299.197003769     A.U. after    8 cycles
 E2 =    -0.9834066008D+00 EUMP2 =    -0.30018041036936D+03
 CCSD(T)
 CCSD(T)= -0.30022517834D+03

 Unable to determine electronic state:  an orbital has unidentified symmetry.
 Alpha  occ. eigenvalues --  -20.49250 -20.49250 -20.44298 -20.44298  -1.32074
 Alpha  occ. eigenvalues --   -1.32072  -0.94893  -0.94873  -0.52094  -0.52091
 Alpha  occ. eigenvalues --   -0.48604  -0.48589  -0.44730  -0.44624  -0.28855
 Alpha  occ. eigenvalues --   -0.28827  -0.27280  -0.27166
 Alpha virt. eigenvalues --    0.49029   0.51264   0.88310   0.90448   0.90491
 Alpha virt. eigenvalues --    0.90857   0.92501   0.92629   0.94953   1.01326
 Alpha virt. eigenvalues --    1.01800   1.02014   1.02509   1.02557   1.12399

 Mulliken charges and spin densities:
               1          2
     1  O   -0.323668   0.572143
     2  O   -0.176332   0.927857
     3  O   -0.176332   0.927857
     4  O   -0.323668   0.572143
 Sum of Mulliken charges =  -1.00000   3.00000

 Dipole moment (field-independent basis, Debye):
    X=             -0.0000    Y=              0.0000    Z=              0.0000  Tot=              0.0000
 Quadrupole moment (field-independent basis, Debye-Ang):
   XX=            -21.8700   YY=            -23.0084   ZZ=            -57.9911
   XY=              0.0000   XZ=              0.0000   YZ=              0.0000

 00.1675274\CCSD=-300.1772541\CCSD(T)=-300.2251783\RMSD=3.610e-09\PG=D*
 Normal termination of Gaussian 16 at Sun Jan 15 07:32:23 2023.
