 Gaussian 16, Revision A.03,
 Gaussian 16:  ES64L-G16RevA.03 25-Dec-2016

 ---------------------------------------------------------------
 #p ROCCSD(T)/cc-pVTZ Guess=Read SCF=(VeryTight,CDIIS,VShift=10)
 ---------------------------------------------------------------

 --------
 O2_O2_15
 --------
 Symbolic Z-matrix:
 Charge = -1 Multiplicity = 4

                         Standard orientation:
 ---------------------------------------------------------------------
 Center     Atomic      Atomic             Coordinates (Angstroms)
 Number     Number       Type             X           Y           Z
 ---------------------------------------------------------------------
      1          8           0        0.000000    0.000000    0.898765
      2          8           0        0.000000    0.000000    2.251145
      3          8           0        0.000000    0.000000   -2.251145
      4          8           0        0.000000    0.000000   -0.898765
 ---------------------------------------------------------------------

 SCF Done:  E(ROHF) =  -299.185816394     A.U. after   10 cycles
 E2 =    -0.9670259184D+00 EUMP2 =    -0.30015284231242D+03
 CCSD(T)
 CCSD(T)= -0.30021119069D+03

 Unable to determine electronic state:  an orbital has unidentified symmetry.
 Alpha  occ. eigenvalues --  -20.43514 -20.43513 -20.40908 -20.40906  -1.29405
 Alpha  occ. eigenvalues --   -1.27493  -0.96219  -0.87312  -0.48761  -0.47318
 Alpha  occ. eigenvalues --   -0.47162  -0.46071  -0.43632  -0.32342  -0.28119
 Alpha  occ. eigenvalues --   -0.25578  -0.22326  -0.21117
 Alpha virt. eigenvalues --    0.52222   0.64517   0.90684   0.91694   0.93249
 Alpha virt. eigenvalues --    0.94295   0.94308   0.97132   1.00664   1.02013
 Alpha virt. eigenvalues --    1.13432   1.14033   1.19797   1.19819   1.26515

 Mulliken charges and spin densities:
               1          2
     1  O   -0.225103   0.605381
     2  O   -0.274897   0.894619
     3  O   -0.274897   0.894619
     4  O   -0.225103   0.605381
 Sum of Mulliken charges =  -1.00000   3.00000

 Dipole moment (field-independent basis, Debye):
    X=             -0.0000    Y=              0.0000    Z=             -0.0000  Tot=              0.0000
 Quadrupole moment (field-independent basis, Debye-Ang):
   XX=            -21.7841   YY=            -23.0521   ZZ=            -38.5091
   XY=              0.0000   XZ=              0.0000   YZ=              0.0000

 536927\CCSD=-300.1631529\CCSD(T)=-300.2111907\RMSD=6.154e-09\PG=D*H [C
 Normal termination of Gaussian 16 at Sat Jan 14 23:47:30 2023.
