 Gaussian 16, Revision A.03,
 Gaussian 16:  ES64L-G16RevA.03 25-Dec-2016

 ---------------------------------------------------------------
 #p ROCCSD(T)/cc-pVTZ Guess=Read SCF=(VeryTight,CDIIS,VShift=10)
 ---------------------------------------------------------------

 ---------
 O2_O2_173
 ---------
 Symbolic Z-matrix:
 Charge = -1 Multiplicity = 4

                         Standard orientation:
 ---------------------------------------------------------------------
 Center     Atomic      Atomic             Coordinates (Angstroms)
 Number     Number       Type             X           Y           Z
 ---------------------------------------------------------------------
      1          8           0        0.000000    0.000000    2.017293
      2          8           0        0.000000    0.000000    3.369673
      3          8           0        0.000000    0.000000   -3.369673
      4          8           0        0.000000    0.000000   -2.017293
 ---------------------------------------------------------------------

 SCF Done:  E(ROHF) =  -299.197309652     A.U. after    8 cycles
 E2 =    -0.9829825807D+00 EUMP2 =    -0.30018029223237D+03
 CCSD(T)
 CCSD(T)= -0.30022549477D+03

 Unable to determine electronic state:  an orbital has unidentified symmetry.
 Alpha  occ. eigenvalues --  -20.49040 -20.49040 -20.44149 -20.44149  -1.31897
 Alpha  occ. eigenvalues --   -1.31893  -0.94718  -0.94687  -0.51908  -0.51902
 Alpha  occ. eigenvalues --   -0.48423  -0.48411  -0.44569  -0.44408  -0.28690
 Alpha  occ. eigenvalues --   -0.28645  -0.27097  -0.26997
 Alpha virt. eigenvalues --    0.48791   0.51804   0.87621   0.90598   0.90666
 Alpha virt. eigenvalues --    0.91097   0.92630   0.92828   0.94343   1.01300
 Alpha virt. eigenvalues --    1.01791   1.02421   1.02941   1.05039   1.12570

 Mulliken charges and spin densities:
               1          2
     1  O   -0.321451   0.574171
     2  O   -0.178549   0.925829
     3  O   -0.178549   0.925829
     4  O   -0.321451   0.574171
 Sum of Mulliken charges =  -1.00000   3.00000

 Dipole moment (field-independent basis, Debye):
    X=             -0.0000    Y=             -0.0000    Z=              0.0000  Tot=              0.0000
 Quadrupole moment (field-independent basis, Debye-Ang):
   XX=            -21.8706   YY=            -23.0101   ZZ=            -55.8989
   XY=              0.0000   XZ=              0.0000   YZ=              0.0000

 00.1678317\CCSD=-300.177581\CCSD(T)=-300.2254948\RMSD=3.843e-09\PG=D*H
 Normal termination of Gaussian 16 at Sun Jan 15 06:54:56 2023.
