 Gaussian 16, Revision A.03,
 Gaussian 16:  ES64L-G16RevA.03 25-Dec-2016

 ---------------------------------------------------------------
 #p ROCCSD(T)/cc-pVTZ Guess=Read SCF=(VeryTight,CDIIS,VShift=10)
 ---------------------------------------------------------------

 ---------
 O2_O2_120
 ---------
 Symbolic Z-matrix:
 Charge = -1 Multiplicity = 4

                         Standard orientation:
 ---------------------------------------------------------------------
 Center     Atomic      Atomic             Coordinates (Angstroms)
 Number     Number       Type             X           Y           Z
 ---------------------------------------------------------------------
      1          8           0        0.000000    0.000000    1.642091
      2          8           0        0.000000    0.000000    2.994471
      3          8           0        0.000000    0.000000   -2.994471
      4          8           0        0.000000    0.000000   -1.642091
 ---------------------------------------------------------------------

 SCF Done:  E(ROHF) =  -299.200009021     A.U. after    8 cycles
 E2 =    -0.9807213127D+00 EUMP2 =    -0.30018073033328D+03
 CCSD(T)
 CCSD(T)= -0.30022832846D+03

 Unable to determine electronic state:  an orbital has unidentified symmetry.
 Alpha  occ. eigenvalues --  -20.48002 -20.48002 -20.43480 -20.43480  -1.31061
 Alpha  occ. eigenvalues --   -1.31035  -0.93946  -0.93728  -0.51026  -0.50988
 Alpha  occ. eigenvalues --   -0.47577  -0.47537  -0.43955  -0.43184  -0.27975
 Alpha  occ. eigenvalues --   -0.27717  -0.26233  -0.26159
 Alpha virt. eigenvalues --    0.48303   0.54432   0.86248   0.91186   0.91340
 Alpha virt. eigenvalues --    0.91555   0.92929   0.93142   0.93906   1.00027
 Alpha virt. eigenvalues --    1.00792   1.05767   1.06108   1.13030   1.13361

 Mulliken charges and spin densities:
               1          2
     1  O   -0.309430   0.584799
     2  O   -0.190570   0.915201
     3  O   -0.190570   0.915201
     4  O   -0.309430   0.584799
 Sum of Mulliken charges =  -1.00000   3.00000

 Dipole moment (field-independent basis, Debye):
    X=             -0.0000    Y=              0.0000    Z=             -0.0000  Tot=              0.0000
 Quadrupole moment (field-independent basis, Debye-Ang):
   XX=            -21.8739   YY=            -23.0284   ZZ=            -48.2626
   XY=              0.0000   XZ=              0.0000   YZ=              0.0000

 1705866\CCSD=-300.1804364\CCSD(T)=-300.2283285\RMSD=6.800e-09\PG=D*H [
 Normal termination of Gaussian 16 at Sun Jan 15 04:31:00 2023.
