 Gaussian 16, Revision A.03,
 Gaussian 16:  ES64L-G16RevA.03 25-Dec-2016

 ---------------------------------------------------------------
 #p ROCCSD(T)/cc-pVTZ Guess=Read SCF=(VeryTight,CDIIS,VShift=10)
 ---------------------------------------------------------------

 --------
 O2_O2_43
 --------
 Symbolic Z-matrix:
 Charge = -1 Multiplicity = 4

                         Standard orientation:
 ---------------------------------------------------------------------
 Center     Atomic      Atomic             Coordinates (Angstroms)
 Number     Number       Type             X           Y           Z
 ---------------------------------------------------------------------
      1          8           0        0.000000    0.000000    1.096985
      2          8           0        0.000000    0.000000    2.449365
      3          8           0        0.000000    0.000000   -2.449365
      4          8           0        0.000000    0.000000   -1.096985
 ---------------------------------------------------------------------

 SCF Done:  E(ROHF) =  -299.207994541     A.U. after   10 cycles
 E2 =    -0.9727632643D+00 EUMP2 =    -0.30018075780518D+03
 CCSD(T)
 CCSD(T)= -0.30023513273D+03

 Unable to determine electronic state:  an orbital has unidentified symmetry.
 Alpha  occ. eigenvalues --  -20.45441 -20.45441 -20.42058 -20.42057  -1.29577
 Alpha  occ. eigenvalues --   -1.28999  -0.93810  -0.90483  -0.49331  -0.48807
 Alpha  occ. eigenvalues --   -0.46158  -0.45295  -0.44861  -0.38080  -0.27381
 Alpha  occ. eigenvalues --   -0.25313  -0.24856  -0.23388
 Alpha virt. eigenvalues --    0.51381   0.60106   0.90372   0.92094   0.92399
 Alpha virt. eigenvalues --    0.92769   0.93367   0.96065   0.98122   0.99883
 Alpha virt. eigenvalues --    1.12316   1.13733   1.15234   1.16382   1.16456

 Mulliken charges and spin densities:
               1          2
     1  O   -0.263699   0.606886
     2  O   -0.236301   0.893114
     3  O   -0.236301   0.893114
     4  O   -0.263699   0.606886
 Sum of Mulliken charges =  -1.00000   3.00000

 Dipole moment (field-independent basis, Debye):
    X=             -0.0000    Y=             -0.0000    Z=             -0.0000  Tot=              0.0000
 Quadrupole moment (field-independent basis, Debye-Ang):
   XX=            -21.8642   YY=            -23.0937   ZZ=            -40.0313
   XY=              0.0000   XZ=              0.0000   YZ=              0.0000

 775857\CCSD=-300.1873872\CCSD(T)=-300.2351327\RMSD=7.486e-09\PG=D*H [C
 Normal termination of Gaussian 16 at Sun Jan 15 01:04:22 2023.
