 Gaussian 16, Revision A.03,
 Gaussian 16:  ES64L-G16RevA.03 25-Dec-2016

 ---------------------------------------------------------------
 #p ROCCSD(T)/cc-pVTZ Guess=Read SCF=(VeryTight,CDIIS,VShift=10)
 ---------------------------------------------------------------

 ---------
 O2_O2_259
 ---------
 Symbolic Z-matrix:
 Charge = -1 Multiplicity = 4

                         Standard orientation:
 ---------------------------------------------------------------------
 Center     Atomic      Atomic             Coordinates (Angstroms)
 Number     Number       Type             X           Y           Z
 ---------------------------------------------------------------------
      1          8           0        0.000000    0.000000    2.626112
      2          8           0        0.000000    0.000000    3.978492
      3          8           0        0.000000    0.000000   -3.978492
      4          8           0        0.000000    0.000000   -2.626112
 ---------------------------------------------------------------------

 SCF Done:  E(ROHF) =  -299.196276456     A.U. after    7 cycles
 E2 =    -0.9852536915D+00 EUMP2 =    -0.30018153014707D+03
 CCSD(T)
 CCSD(T)= -0.30022446063D+03

 Unable to determine electronic state:  an orbital has unidentified symmetry.
 Alpha  occ. eigenvalues --  -20.50210 -20.50210 -20.45017 -20.45017  -1.32904
 Alpha  occ. eigenvalues --   -1.32904  -0.95718  -0.95717  -0.52960  -0.52960
 Alpha  occ. eigenvalues --   -0.49437  -0.49418  -0.45546  -0.45539  -0.29649
 Alpha  occ. eigenvalues --   -0.29648  -0.28105  -0.27972
 Alpha virt. eigenvalues --    0.49220   0.49412   0.89180   0.89407   0.89707
 Alpha virt. eigenvalues --    0.89708   0.91777   0.91798   0.96659   0.97139
 Alpha virt. eigenvalues --    1.00793   1.00818   1.01258   1.01409   1.11605

 Mulliken charges and spin densities:
               1          2
     1  O   -0.333093   0.563629
     2  O   -0.166907   0.936371
     3  O   -0.166907   0.936371
     4  O   -0.333093   0.563629
 Sum of Mulliken charges =  -1.00000   3.00000

 Dipole moment (field-independent basis, Debye):
    X=             -0.0000    Y=             -0.0000    Z=             -0.0000  Tot=              0.0000
 Quadrupole moment (field-independent basis, Debye-Ang):
   XX=            -21.8677   YY=            -23.0057   ZZ=            -71.3121
   XY=              0.0000   XZ=              0.0000   YZ=              0.0000

 668445\CCSD=-300.176472\CCSD(T)=-300.2244606\RMSD=5.646e-09\PG=D*H [C*
 Normal termination of Gaussian 16 at Mon Jan 16 04:23:30 2023.
