 Gaussian 16, Revision A.03,
 Gaussian 16:  ES64L-G16RevA.03 25-Dec-2016

 ---------------------------------------------------------------
 #p ROCCSD(T)/cc-pVTZ Guess=Read SCF=(VeryTight,CDIIS,VShift=10)
 ---------------------------------------------------------------

 ---------
 O2_O2_171
 ---------
 Symbolic Z-matrix:
 Charge = -1 Multiplicity = 4

                         Standard orientation:
 ---------------------------------------------------------------------
 Center     Atomic      Atomic             Coordinates (Angstroms)
 Number     Number       Type             X           Y           Z
 ---------------------------------------------------------------------
      1          8           0        0.000000    0.000000    2.003135
      2          8           0        0.000000    0.000000    3.355515
      3          8           0        0.000000    0.000000   -3.355515
      4          8           0        0.000000    0.000000   -2.003135
 ---------------------------------------------------------------------

 SCF Done:  E(ROHF) =  -299.197365309     A.U. after    8 cycles
 E2 =    -0.9829140726D+00 EUMP2 =    -0.30018027938162D+03
 CCSD(T)
 CCSD(T)= -0.30022555289D+03

 Unable to determine electronic state:  an orbital has unidentified symmetry.
 Alpha  occ. eigenvalues --  -20.49006 -20.49006 -20.44126 -20.44126  -1.31868
 Alpha  occ. eigenvalues --   -1.31865  -0.94691  -0.94657  -0.51878  -0.51872
 Alpha  occ. eigenvalues --   -0.48394  -0.48383  -0.44544  -0.44372  -0.28664
 Alpha  occ. eigenvalues --   -0.28616  -0.27068  -0.26970
 Alpha virt. eigenvalues --    0.48750   0.51893   0.87498   0.90621   0.90695
 Alpha virt. eigenvalues --    0.91129   0.92650   0.92861   0.94256   1.01289
 Alpha virt. eigenvalues --    1.01783   1.02493   1.03010   1.05494   1.12597

 Mulliken charges and spin densities:
               1          2
     1  O   -0.321090   0.574500
     2  O   -0.178910   0.925500
     3  O   -0.178910   0.925500
     4  O   -0.321090   0.574500
 Sum of Mulliken charges =  -1.00000   3.00000

 Dipole moment (field-independent basis, Debye):
    X=             -0.0000    Y=              0.0000    Z=              0.0000  Tot=              0.0000
 Quadrupole moment (field-independent basis, Debye-Ang):
   XX=            -21.8707   YY=            -23.0105   ZZ=            -55.5846
   XY=              0.0000   XZ=              0.0000   YZ=              0.0000

 0.1678876\CCSD=-300.1776406\CCSD(T)=-300.2255529\RMSD=3.859e-09\PG=D*H
 Normal termination of Gaussian 16 at Sun Jan 15 06:49:32 2023.
