 Gaussian 16, Revision A.03,
 Gaussian 16:  ES64L-G16RevA.03 25-Dec-2016

 ---------------------------------------------------------------
 #p ROCCSD(T)/cc-pVTZ Guess=Read SCF=(VeryTight,CDIIS,VShift=10)
 ---------------------------------------------------------------

 ---------
 O2_O2_148
 ---------
 Symbolic Z-matrix:
 Charge = -1 Multiplicity = 4

                         Standard orientation:
 ---------------------------------------------------------------------
 Center     Atomic      Atomic             Coordinates (Angstroms)
 Number     Number       Type             X           Y           Z
 ---------------------------------------------------------------------
      1          8           0        0.000000    0.000000    1.840311
      2          8           0        0.000000    0.000000    3.192691
      3          8           0        0.000000    0.000000   -3.192691
      4          8           0        0.000000    0.000000   -1.840311
 ---------------------------------------------------------------------

 SCF Done:  E(ROHF) =  -299.198218385     A.U. after    8 cycles
 E2 =    -0.9820498770D+00 EUMP2 =    -0.30018026826204D+03
 CCSD(T)
 CCSD(T)= -0.30022645308D+03

 Unable to determine electronic state:  an orbital has unidentified symmetry.
 Alpha  occ. eigenvalues --  -20.48591 -20.48591 -20.43846 -20.43846  -1.31526
 Alpha  occ. eigenvalues --   -1.31517  -0.94362  -0.94283  -0.51518  -0.51504
 Alpha  occ. eigenvalues --   -0.48041  -0.48039  -0.44258  -0.43916  -0.28358
 Alpha  occ. eigenvalues --   -0.28253  -0.26701  -0.26649
 Alpha virt. eigenvalues --    0.48309   0.52980   0.86097   0.90887   0.91048
 Alpha virt. eigenvalues --    0.91375   0.92841   0.93280   0.93503   1.00973
 Alpha virt. eigenvalues --    1.01536   1.03583   1.04036   1.11612   1.12922

 Mulliken charges and spin densities:
               1          2
     1  O   -0.316514   0.578655
     2  O   -0.183486   0.921345
     3  O   -0.183486   0.921345
     4  O   -0.316514   0.578655
 Sum of Mulliken charges =  -1.00000   3.00000

 Dipole moment (field-independent basis, Debye):
    X=             -0.0000    Y=              0.0000    Z=             -0.0000  Tot=              0.0000
 Quadrupole moment (field-independent basis, Debye-Ang):
   XX=            -21.8721   YY=            -23.0160   ZZ=            -52.1162
   XY=              0.0000   XZ=              0.0000   YZ=              0.0000

 00.1687561\CCSD=-300.178553\CCSD(T)=-300.2264531\RMSD=4.317e-09\PG=D*H
 Normal termination of Gaussian 16 at Sun Jan 15 05:44:56 2023.
