 Gaussian 16, Revision A.03,
 Gaussian 16:  ES64L-G16RevA.03 25-Dec-2016

 ---------------------------------------------------------------
 #p ROCCSD(T)/cc-pVTZ Guess=Read SCF=(VeryTight,CDIIS,VShift=10)
 ---------------------------------------------------------------

 ---------
 O2_O2_269
 ---------
 Symbolic Z-matrix:
 Charge = -1 Multiplicity = 4

                         Standard orientation:
 ---------------------------------------------------------------------
 Center     Atomic      Atomic             Coordinates (Angstroms)
 Number     Number       Type             X           Y           Z
 ---------------------------------------------------------------------
      1          8           0        0.000000    0.000000    2.696905
      2          8           0        0.000000    0.000000    4.049285
      3          8           0        0.000000    0.000000   -4.049285
      4          8           0        0.000000    0.000000   -2.696905
 ---------------------------------------------------------------------

 SCF Done:  E(ROHF) =  -299.196234677     A.U. after    7 cycles
 E2 =    -0.9854526073D+00 EUMP2 =    -0.30018168728409D+03
 CCSD(T)
 CCSD(T)= -0.30022442171D+03

 Unable to determine electronic state:  an orbital has unidentified symmetry.
 Alpha  occ. eigenvalues --  -20.50317 -20.50317 -20.45100 -20.45100  -1.32999
 Alpha  occ. eigenvalues --   -1.32998  -0.95812  -0.95811  -0.53058  -0.53057
 Alpha  occ. eigenvalues --   -0.49531  -0.49513  -0.45642  -0.45638  -0.29741
 Alpha  occ. eigenvalues --   -0.29740  -0.28197  -0.28065
 Alpha virt. eigenvalues --    0.49153   0.49277   0.89130   0.89279   0.89620
 Alpha virt. eigenvalues --    0.89621   0.91689   0.91708   0.96629   0.96929
 Alpha virt. eigenvalues --    1.00701   1.00716   1.01168   1.01310   1.11514

 Mulliken charges and spin densities:
               1          2
     1  O   -0.334073   0.562750
     2  O   -0.165927   0.937250
     3  O   -0.165927   0.937250
     4  O   -0.334073   0.562750
 Sum of Mulliken charges =  -1.00000   3.00000

 Dipole moment (field-independent basis, Debye):
    X=             -0.0000    Y=             -0.0000    Z=              0.0000  Tot=              0.0000
 Quadrupole moment (field-independent basis, Debye-Ang):
   XX=            -21.8675   YY=            -23.0056   ZZ=            -73.3451
   XY=              0.0000   XZ=              0.0000   YZ=              0.0000

 1\CCSD=-300.1764256\CCSD(T)=-300.2244217\RMSD=5.785e-09\PG=D*H [C*(O1O
 Normal termination of Gaussian 16 at Mon Jan 16 04:35:00 2023.
