 Gaussian 16, Revision A.03,
 Gaussian 16:  ES64L-G16RevA.03 25-Dec-2016

 ---------------------------------------------------------------
 #p ROCCSD(T)/cc-pVTZ Guess=Read SCF=(VeryTight,CDIIS,VShift=10)
 ---------------------------------------------------------------

 ---------
 O2_O2_176
 ---------
 Symbolic Z-matrix:
 Charge = -1 Multiplicity = 4

                         Standard orientation:
 ---------------------------------------------------------------------
 Center     Atomic      Atomic             Coordinates (Angstroms)
 Number     Number       Type             X           Y           Z
 ---------------------------------------------------------------------
      1          8           0        0.000000    0.000000    2.038531
      2          8           0        0.000000    0.000000    3.390911
      3          8           0        0.000000    0.000000   -3.390911
      4          8           0        0.000000    0.000000   -2.038531
 ---------------------------------------------------------------------

 SCF Done:  E(ROHF) =  -299.197230762     A.U. after    8 cycles
 E2 =    -0.9830836374D+00 EUMP2 =    -0.30018031439908D+03
 CCSD(T)
 CCSD(T)= -0.30022541264D+03

 Unable to determine electronic state:  an orbital has unidentified symmetry.
 Alpha  occ. eigenvalues --  -20.49090 -20.49090 -20.44184 -20.44184  -1.31939
 Alpha  occ. eigenvalues --   -1.31936  -0.94759  -0.94731  -0.51952  -0.51947
 Alpha  occ. eigenvalues --   -0.48466  -0.48453  -0.44606  -0.44460  -0.28728
 Alpha  occ. eigenvalues --   -0.28688  -0.27141  -0.27037
 Alpha virt. eigenvalues --    0.48850   0.51675   0.87798   0.90563   0.90624
 Alpha virt. eigenvalues --    0.91046   0.92601   0.92780   0.94478   1.01313
 Alpha virt. eigenvalues --    1.01799   1.02317   1.02843   1.04390   1.12530

 Mulliken charges and spin densities:
               1          2
     1  O   -0.321981   0.573686
     2  O   -0.178019   0.926314
     3  O   -0.178019   0.926314
     4  O   -0.321981   0.573686
 Sum of Mulliken charges =  -1.00000   3.00000

 Dipole moment (field-independent basis, Debye):
    X=             -0.0000    Y=             -0.0000    Z=             -0.0000  Tot=              0.0000
 Quadrupole moment (field-independent basis, Debye-Ang):
   XX=            -21.8705   YY=            -23.0096   ZZ=            -56.3742
   XY=              0.0000   XZ=              0.0000   YZ=              0.0000

 00.1677527\CCSD=-300.1774966\CCSD(T)=-300.2254126\RMSD=3.811e-09\PG=D*
 Normal termination of Gaussian 16 at Sun Jan 15 07:05:56 2023.
