 Gaussian 16, Revision A.03,
 Gaussian 16:  ES64L-G16RevA.03 25-Dec-2016

 ---------------------------------------------------------------
 #p ROCCSD(T)/cc-pVTZ Guess=Read SCF=(VeryTight,CDIIS,VShift=10)
 ---------------------------------------------------------------

 --------
 O2_O2_20
 --------
 Symbolic Z-matrix:
 Charge = -1 Multiplicity = 4

                         Standard orientation:
 ---------------------------------------------------------------------
 Center     Atomic      Atomic             Coordinates (Angstroms)
 Number     Number       Type             X           Y           Z
 ---------------------------------------------------------------------
      1          8           0        0.000000    0.000000    0.934161
      2          8           0        0.000000    0.000000    2.286542
      3          8           0        0.000000    0.000000   -2.286542
      4          8           0        0.000000    0.000000   -0.934161
 ---------------------------------------------------------------------

 SCF Done:  E(ROHF) =  -299.194081073     A.U. after    9 cycles
 E2 =    -0.9680692379D+00 EUMP2 =    -0.30016215031089D+03
 CCSD(T)
 CCSD(T)= -0.30021977631D+03

 Unable to determine electronic state:  an orbital has unidentified symmetry.
 Alpha  occ. eigenvalues --  -20.43951 -20.43951 -20.41156 -20.41154  -1.29357
 Alpha  occ. eigenvalues --   -1.27826  -0.95514  -0.88037  -0.48832  -0.47640
 Alpha  occ. eigenvalues --   -0.46625  -0.46007  -0.43996  -0.33726  -0.27885
 Alpha  occ. eigenvalues --   -0.25474  -0.22896  -0.21621
 Alpha virt. eigenvalues --    0.52136   0.63504   0.90532   0.91835   0.93038
 Alpha virt. eigenvalues --    0.94002   0.94104   0.96911   1.00028   1.01474
 Alpha virt. eigenvalues --    1.13542   1.14161   1.19262   1.19294   1.24699

 Mulliken charges and spin densities:
               1          2
     1  O   -0.233624   0.607007
     2  O   -0.266376   0.892993
     3  O   -0.266376   0.892993
     4  O   -0.233624   0.607007
 Sum of Mulliken charges =  -1.00000   3.00000

 Dipole moment (field-independent basis, Debye):
    X=             -0.0000    Y=              0.0000    Z=              0.0000  Tot=              0.0000
 Quadrupole moment (field-independent basis, Debye-Ang):
   XX=            -21.8089   YY=            -23.0700   ZZ=            -38.6722
   XY=              0.0000   XZ=              0.0000   YZ=              0.0000

 0.162302\CCSD=-300.1718735\CCSD(T)=-300.2197763\RMSD=8.137e-09\PG=D*H
 Normal termination of Gaussian 16 at Sun Jan 15 00:01:40 2023.
