 Gaussian 16, Revision A.03,
 Gaussian 16:  ES64L-G16RevA.03 25-Dec-2016

 ---------------------------------------------------------------
 #p ROCCSD(T)/cc-pVTZ Guess=Read SCF=(VeryTight,CDIIS,VShift=10)
 ---------------------------------------------------------------

 ---------
 O2_O2_127
 ---------
 Symbolic Z-matrix:
 Charge = -1 Multiplicity = 4

                         Standard orientation:
 ---------------------------------------------------------------------
 Center     Atomic      Atomic             Coordinates (Angstroms)
 Number     Number       Type             X           Y           Z
 ---------------------------------------------------------------------
      1          8           0        0.000000    0.000000    1.691645
      2          8           0        0.000000    0.000000    3.044026
      3          8           0        0.000000    0.000000   -3.044026
      4          8           0        0.000000    0.000000   -1.691645
 ---------------------------------------------------------------------

 SCF Done:  E(ROHF) =  -299.199461116     A.U. after    8 cycles
 E2 =    -0.9810919244D+00 EUMP2 =    -0.30018055304081D+03
 CCSD(T)
 CCSD(T)= -0.30022776048D+03

 Unable to determine electronic state:  an orbital has unidentified symmetry.
 Alpha  occ. eigenvalues --  -20.48160 -20.48160 -20.43575 -20.43574  -1.31182
 Alpha  occ. eigenvalues --   -1.31163  -0.94049  -0.93880  -0.51155  -0.51125
 Alpha  occ. eigenvalues --   -0.47698  -0.47671  -0.44022  -0.43391  -0.28071
 Alpha  occ. eigenvalues --   -0.27864  -0.26339  -0.26307
 Alpha virt. eigenvalues --    0.48216   0.54058   0.85865   0.91117   0.91385
 Alpha virt. eigenvalues --    0.91420   0.92930   0.93191   0.93738   1.00322
 Alpha virt. eigenvalues --    1.01020   1.05116   1.05487   1.12911   1.13246

 Mulliken charges and spin densities:
               1          2
     1  O   -0.311415   0.583134
     2  O   -0.188585   0.916866
     3  O   -0.188585   0.916866
     4  O   -0.311415   0.583134
 Sum of Mulliken charges =  -1.00000   3.00000

 Dipole moment (field-independent basis, Debye):
    X=             -0.0000    Y=              0.0000    Z=              0.0000  Tot=              0.0000
 Quadrupole moment (field-independent basis, Debye-Ang):
   XX=            -21.8734   YY=            -23.0246   ZZ=            -49.1876
   XY=              0.0000   XZ=              0.0000   YZ=              0.0000

 .1700288\CCSD=-300.1798662\CCSD(T)=-300.2277605\RMSD=5.972e-09\PG=D*H
 Normal termination of Gaussian 16 at Sun Jan 15 04:48:47 2023.
