 Gaussian 16, Revision A.03,
 Gaussian 16:  ES64L-G16RevA.03 25-Dec-2016

 ---------------------------------------------------------------
 #p ROCCSD(T)/cc-pVTZ Guess=Read SCF=(VeryTight,CDIIS,VShift=10)
 ---------------------------------------------------------------

 --------
 O2_O2_27
 --------
 Symbolic Z-matrix:
 Charge = -1 Multiplicity = 4

                         Standard orientation:
 ---------------------------------------------------------------------
 Center     Atomic      Atomic             Coordinates (Angstroms)
 Number     Number       Type             X           Y           Z
 ---------------------------------------------------------------------
      1          8           0        0.000000    0.000000    0.983716
      2          8           0        0.000000    0.000000    2.336097
      3          8           0        0.000000    0.000000   -2.336097
      4          8           0        0.000000    0.000000   -0.983716
 ---------------------------------------------------------------------

 SCF Done:  E(ROHF) =  -299.201562035     A.U. after    9 cycles
 E2 =    -0.9695800754D+00 EUMP2 =    -0.30017114211083D+03
 CCSD(T)
 CCSD(T)= -0.30022773436D+03

 Unable to determine electronic state:  an orbital has unidentified symmetry.
 Alpha  occ. eigenvalues --  -20.44483 -20.44483 -20.41475 -20.41473  -1.29370
 Alpha  occ. eigenvalues --   -1.28239  -0.94769  -0.88923  -0.48965  -0.48043
 Alpha  occ. eigenvalues --   -0.45996  -0.45967  -0.44451  -0.35355  -0.27647
 Alpha  occ. eigenvalues --   -0.25375  -0.23597  -0.22246
 Alpha virt. eigenvalues --    0.51952   0.62279   0.90418   0.92009   0.92730
 Alpha virt. eigenvalues --    0.93569   0.93859   0.96628   0.99263   1.00841
 Alpha virt. eigenvalues --    1.13647   1.14228   1.18453   1.18500   1.21741

 Mulliken charges and spin densities:
               1          2
     1  O   -0.244025   0.608106
     2  O   -0.255975   0.891894
     3  O   -0.255975   0.891894
     4  O   -0.244025   0.608106
 Sum of Mulliken charges =  -1.00000   3.00000

 Dipole moment (field-independent basis, Debye):
    X=             -0.0000    Y=              0.0000    Z=             -0.0000  Tot=              0.0000
 Quadrupole moment (field-independent basis, Debye-Ang):
   XX=            -21.8342   YY=            -23.0856   ZZ=            -38.9927
   XY=              0.0000   XZ=              0.0000   YZ=              0.0000

 1702614\CCSD=-300.1799368\CCSD(T)=-300.2277344\RMSD=3.752e-09\PG=D*H [
 Normal termination of Gaussian 16 at Sun Jan 15 00:21:06 2023.
