 Gaussian 16, Revision A.03,
 Gaussian 16:  ES64L-G16RevA.03 25-Dec-2016

 ---------------------------------------------------------------
 #p ROCCSD(T)/cc-pVTZ Guess=Read SCF=(VeryTight,CDIIS,VShift=10)
 ---------------------------------------------------------------

 ---------
 O2_O2_137
 ---------
 Symbolic Z-matrix:
 Charge = -1 Multiplicity = 4

                         Standard orientation:
 ---------------------------------------------------------------------
 Center     Atomic      Atomic             Coordinates (Angstroms)
 Number     Number       Type             X           Y           Z
 ---------------------------------------------------------------------
      1          8           0        0.000000    0.000000    1.762439
      2          8           0        0.000000    0.000000    3.114819
      3          8           0        0.000000    0.000000   -3.114819
      4          8           0        0.000000    0.000000   -1.762439
 ---------------------------------------------------------------------

 SCF Done:  E(ROHF) =  -299.198801647     A.U. after    8 cycles
 E2 =    -0.9815734481D+00 EUMP2 =    -0.30018037509555D+03
 CCSD(T)
 CCSD(T)= -0.30022706938D+03

 Unable to determine electronic state:  an orbital has unidentified symmetry.
 Alpha  occ. eigenvalues --  -20.48372 -20.48372 -20.43706 -20.43706  -1.31350
 Alpha  occ. eigenvalues --   -1.31336  -0.94199  -0.94081  -0.51332  -0.51311
 Alpha  occ. eigenvalues --   -0.47865  -0.47853  -0.44129  -0.43657  -0.28208
 Alpha  occ. eigenvalues --   -0.28057  -0.26503  -0.26489
 Alpha virt. eigenvalues --    0.48201   0.53537   0.85756   0.91010   0.91237
 Alpha virt. eigenvalues --    0.91407   0.92902   0.93303   0.93511   1.00678
 Alpha virt. eigenvalues --    1.01300   1.04311   1.04724   1.12667   1.13088

 Mulliken charges and spin densities:
               1          2
     1  O   -0.313980   0.580910
     2  O   -0.186020   0.919090
     3  O   -0.186020   0.919090
     4  O   -0.313980   0.580910
 Sum of Mulliken charges =  -1.00000   3.00000

 Dipole moment (field-independent basis, Debye):
    X=             -0.0000    Y=              0.0000    Z=             -0.0000  Tot=              0.0000
 Quadrupole moment (field-independent basis, Debye-Ang):
   XX=            -21.8728   YY=            -23.0200   ZZ=            -50.5536
   XY=              0.0000   XZ=              0.0000   YZ=              0.0000

 00.1693541\CCSD=-300.1791725\CCSD(T)=-300.2270694\RMSD=5.035e-09\PG=D*
 Normal termination of Gaussian 16 at Sun Jan 15 05:16:27 2023.
