 Gaussian 16, Revision A.03,
 Gaussian 16:  ES64L-G16RevA.03 25-Dec-2016

 ---------------------------------------------------------------
 #p ROCCSD(T)/cc-pVTZ Guess=Read SCF=(VeryTight,CDIIS,VShift=10)
 ---------------------------------------------------------------

 ---------
 O2_O2_126
 ---------
 Symbolic Z-matrix:
 Charge = -1 Multiplicity = 4

                         Standard orientation:
 ---------------------------------------------------------------------
 Center     Atomic      Atomic             Coordinates (Angstroms)
 Number     Number       Type             X           Y           Z
 ---------------------------------------------------------------------
      1          8           0        0.000000    0.000000    1.684566
      2          8           0        0.000000    0.000000    3.036946
      3          8           0        0.000000    0.000000   -3.036946
      4          8           0        0.000000    0.000000   -1.684566
 ---------------------------------------------------------------------

 SCF Done:  E(ROHF) =  -299.199534774     A.U. after    8 cycles
 E2 =    -0.9810408028D+00 EUMP2 =    -0.30018057557724D+03
 CCSD(T)
 CCSD(T)= -0.30022783718D+03

 Unable to determine electronic state:  an orbital has unidentified symmetry.
 Alpha  occ. eigenvalues --  -20.48138 -20.48138 -20.43561 -20.43561  -1.31165
 Alpha  occ. eigenvalues --   -1.31145  -0.94035  -0.93859  -0.51137  -0.51106
 Alpha  occ. eigenvalues --   -0.47681  -0.47653  -0.44012  -0.43363  -0.28057
 Alpha  occ. eigenvalues --   -0.27843  -0.26324  -0.26287
 Alpha virt. eigenvalues --    0.48225   0.54111   0.85903   0.91127   0.91380
 Alpha virt. eigenvalues --    0.91439   0.92930   0.93183   0.93762   1.00282
 Alpha virt. eigenvalues --    1.00989   1.05204   1.05571   1.12929   1.13262

 Mulliken charges and spin densities:
               1          2
     1  O   -0.311142   0.583366
     2  O   -0.188858   0.916634
     3  O   -0.188858   0.916634
     4  O   -0.311142   0.583366
 Sum of Mulliken charges =  -1.00000   3.00000

 Dipole moment (field-independent basis, Debye):
    X=             -0.0000    Y=             -0.0000    Z=             -0.0000  Tot=              0.0000
 Quadrupole moment (field-independent basis, Debye-Ang):
   XX=            -21.8735   YY=            -23.0251   ZZ=            -49.0539
   XY=              0.0000   XZ=              0.0000   YZ=              0.0000

 00.170104\CCSD=-300.1799431\CCSD(T)=-300.2278372\RMSD=6.080e-09\PG=D*H
 Normal termination of Gaussian 16 at Sun Jan 15 04:46:06 2023.
