 Gaussian 16, Revision A.03,
 Gaussian 16:  ES64L-G16RevA.03 25-Dec-2016

 ---------------------------------------------------------------
 #p ROCCSD(T)/cc-pVTZ Guess=Read SCF=(VeryTight,CDIIS,VShift=10)
 ---------------------------------------------------------------

 ---------
 O2_O2_217
 ---------
 Symbolic Z-matrix:
 Charge = -1 Multiplicity = 4

                         Standard orientation:
 ---------------------------------------------------------------------
 Center     Atomic      Atomic             Coordinates (Angstroms)
 Number     Number       Type             X           Y           Z
 ---------------------------------------------------------------------
      1          8           0        0.000000    0.000000    2.328781
      2          8           0        0.000000    0.000000    3.681162
      3          8           0        0.000000    0.000000   -3.681162
      4          8           0        0.000000    0.000000   -2.328781
 ---------------------------------------------------------------------

 SCF Done:  E(ROHF) =  -299.196557744     A.U. after    7 cycles
 E2 =    -0.9842889584D+00 EUMP2 =    -0.30018084670227D+03
 CCSD(T)
 CCSD(T)= -0.30022473056D+03

 Unable to determine electronic state:  an orbital has unidentified symmetry.
 Alpha  occ. eigenvalues --  -20.49700 -20.49700 -20.44628 -20.44628  -1.32460
 Alpha  occ. eigenvalues --   -1.32459  -0.95275  -0.95269  -0.52497  -0.52496
 Alpha  occ. eigenvalues --   -0.48992  -0.48974  -0.45100  -0.45064  -0.29220
 Alpha  occ. eigenvalues --   -0.29212  -0.27667  -0.27539
 Alpha virt. eigenvalues --    0.49324   0.50242   0.89115   0.90111   0.90122
 Alpha virt. eigenvalues --    0.90166   0.92181   0.92229   0.96206   0.98939
 Alpha virt. eigenvalues --    1.01171   1.01360   1.01631   1.01934   1.12028

 Mulliken charges and spin densities:
               1          2
     1  O   -0.328223   0.568005
     2  O   -0.171777   0.931995
     3  O   -0.171777   0.931995
     4  O   -0.328223   0.568005
 Sum of Mulliken charges =  -1.00000   3.00000

 Dipole moment (field-independent basis, Debye):
    X=             -0.0000    Y=              0.0000    Z=              0.0000  Tot=              0.0000
 Quadrupole moment (field-independent basis, Debye-Ang):
   XX=            -21.8687   YY=            -23.0063   ZZ=            -63.3217
   XY=              0.0000   XZ=              0.0000   YZ=              0.0000

 00.1670982\CCSD=-300.1767775\CCSD(T)=-300.2247306\RMSD=6.433e-09\PG=D*
 Normal termination of Gaussian 16 at Sun Jan 15 08:54:52 2023.
