 Gaussian 16, Revision A.03,
 Gaussian 16:  ES64L-G16RevA.03 25-Dec-2016

 ---------------------------------------------------------------
 #p ROCCSD(T)/cc-pVTZ Guess=Read SCF=(VeryTight,CDIIS,VShift=10)
 ---------------------------------------------------------------

 ---------
 O2_O2_241
 ---------
 Symbolic Z-matrix:
 Charge = -1 Multiplicity = 4

                         Standard orientation:
 ---------------------------------------------------------------------
 Center     Atomic      Atomic             Coordinates (Angstroms)
 Number     Number       Type             X           Y           Z
 ---------------------------------------------------------------------
      1          8           0        0.000000    0.000000    2.498685
      2          8           0        0.000000    0.000000    3.851065
      3          8           0        0.000000    0.000000   -3.851065
      4          8           0        0.000000    0.000000   -2.498685
 ---------------------------------------------------------------------

 SCF Done:  E(ROHF) =  -299.196370720     A.U. after    7 cycles
 E2 =    -0.9848679589D+00 EUMP2 =    -0.30018123867871D+03
 CCSD(T)
 CCSD(T)= -0.30022454949D+03

 Unable to determine electronic state:  an orbital has unidentified symmetry.
 Alpha  occ. eigenvalues --  -20.50004 -20.50004 -20.44858 -20.44858  -1.32724
 Alpha  occ. eigenvalues --   -1.32724  -0.95538  -0.95535  -0.52772  -0.52772
 Alpha  occ. eigenvalues --   -0.49257  -0.49238  -0.45363  -0.45349  -0.29474
 Alpha  occ. eigenvalues --   -0.29471  -0.27928  -0.27796
 Alpha virt. eigenvalues --    0.49311   0.49705   0.89226   0.89686   0.89872
 Alpha virt. eigenvalues --    0.89876   0.91944   0.91971   0.96613   0.97670
 Alpha virt. eigenvalues --    1.00961   1.01023   1.01422   1.01609   1.11777

 Mulliken charges and spin densities:
               1          2
     1  O   -0.331166   0.565358
     2  O   -0.168834   0.934642
     3  O   -0.168834   0.934642
     4  O   -0.331166   0.565358
 Sum of Mulliken charges =  -1.00000   3.00000

 Dipole moment (field-independent basis, Debye):
    X=             -0.0000    Y=              0.0000    Z=             -0.0000  Tot=              0.0000
 Quadrupole moment (field-independent basis, Debye-Ang):
   XX=            -21.8680   YY=            -23.0058   ZZ=            -67.7792
   XY=              0.0000   XZ=              0.0000   YZ=              0.0000

 669271\CCSD=-300.1765753\CCSD(T)=-300.2245495\RMSD=5.298e-09\PG=D*H [C
 Normal termination of Gaussian 16 at Mon Jan 16 04:02:01 2023.
