 Gaussian 16, Revision A.03,
 Gaussian 16:  ES64L-G16RevA.03 25-Dec-2016

 ---------------------------------------------------------------
 #p ROCCSD(T)/cc-pVTZ Guess=Read SCF=(VeryTight,CDIIS,VShift=10)
 ---------------------------------------------------------------

 ---------
 O2_O2_174
 ---------
 Symbolic Z-matrix:
 Charge = -1 Multiplicity = 4

                         Standard orientation:
 ---------------------------------------------------------------------
 Center     Atomic      Atomic             Coordinates (Angstroms)
 Number     Number       Type             X           Y           Z
 ---------------------------------------------------------------------
      1          8           0        0.000000    0.000000    2.024372
      2          8           0        0.000000    0.000000    3.376752
      3          8           0        0.000000    0.000000   -3.376752
      4          8           0        0.000000    0.000000   -2.024372
 ---------------------------------------------------------------------

 SCF Done:  E(ROHF) =  -299.197282755     A.U. after    8 cycles
 E2 =    -0.9830164897D+00 EUMP2 =    -0.30018029924497D+03
 CCSD(T)
 CCSD(T)= -0.30022546673D+03

 Unable to determine electronic state:  an orbital has unidentified symmetry.
 Alpha  occ. eigenvalues --  -20.49057 -20.49057 -20.44161 -20.44161  -1.31911
 Alpha  occ. eigenvalues --   -1.31908  -0.94732  -0.94702  -0.51923  -0.51917
 Alpha  occ. eigenvalues --   -0.48437  -0.48425  -0.44581  -0.44425  -0.28703
 Alpha  occ. eigenvalues --   -0.28660  -0.27112  -0.27010
 Alpha virt. eigenvalues --    0.48811   0.51761   0.87681   0.90586   0.90652
 Alpha virt. eigenvalues --    0.91080   0.92621   0.92812   0.94388   1.01305
 Alpha virt. eigenvalues --    1.01794   1.02386   1.02908   1.04818   1.12557

 Mulliken charges and spin densities:
               1          2
     1  O   -0.321629   0.574008
     2  O   -0.178371   0.925992
     3  O   -0.178371   0.925992
     4  O   -0.321629   0.574008
 Sum of Mulliken charges =  -1.00000   3.00000

 Dipole moment (field-independent basis, Debye):
    X=             -0.0000    Y=              0.0000    Z=              0.0000  Tot=              0.0000
 Quadrupole moment (field-independent basis, Debye-Ang):
   XX=            -21.8706   YY=            -23.0100   ZZ=            -56.0569
   XY=              0.0000   XZ=              0.0000   YZ=              0.0000

 00.1678047\CCSD=-300.1775523\CCSD(T)=-300.2254667\RMSD=3.833e-09\PG=D*
 Normal termination of Gaussian 16 at Sun Jan 15 06:57:40 2023.
