 Gaussian 16, Revision A.03,
 Gaussian 16:  ES64L-G16RevA.03 25-Dec-2016

 ---------------------------------------------------------------
 #p ROCCSD(T)/cc-pVTZ Guess=Read SCF=(VeryTight,CDIIS,VShift=10)
 ---------------------------------------------------------------

 --------
 O2_O2_32
 --------
 Symbolic Z-matrix:
 Charge = -1 Multiplicity = 4

                         Standard orientation:
 ---------------------------------------------------------------------
 Center     Atomic      Atomic             Coordinates (Angstroms)
 Number     Number       Type             X           Y           Z
 ---------------------------------------------------------------------
      1          8           0        0.000000    0.000000    1.019113
      2          8           0        0.000000    0.000000    2.371493
      3          8           0        0.000000    0.000000   -2.371493
      4          8           0        0.000000    0.000000   -1.019113
 ---------------------------------------------------------------------

 SCF Done:  E(ROHF) =  -299.204794294     A.U. after    9 cycles
 E2 =    -0.9706328475D+00 EUMP2 =    -0.30017542714158D+03
 CCSD(T)
 CCSD(T)= -0.30023129674D+03

 Unable to determine electronic state:  an orbital has unidentified symmetry.
 Alpha  occ. eigenvalues --  -20.44815 -20.44815 -20.41678 -20.41677  -1.29416
 Alpha  occ. eigenvalues --   -1.28501  -0.94376  -0.89474  -0.49074  -0.48303
 Alpha  occ. eigenvalues --   -0.46026  -0.45564  -0.44741  -0.36336  -0.27529
 Alpha  occ. eigenvalues --   -0.25334  -0.24037  -0.22642
 Alpha virt. eigenvalues --    0.51789   0.61520   0.90381   0.92130   0.92513
 Alpha virt. eigenvalues --    0.93278   0.93697   0.96441   0.98816   1.00473
 Alpha virt. eigenvalues --    1.13693   1.14165   1.17838   1.17893   1.19390

 Mulliken charges and spin densities:
               1          2
     1  O   -0.250683   0.608193
     2  O   -0.249317   0.891807
     3  O   -0.249317   0.891807
     4  O   -0.250683   0.608193
 Sum of Mulliken charges =  -1.00000   3.00000

 Dipole moment (field-independent basis, Debye):
    X=             -0.0000    Y=              0.0000    Z=             -0.0000  Tot=              0.0000
 Quadrupole moment (field-independent basis, Debye-Ang):
   XX=            -21.8469   YY=            -23.0915   ZZ=            -39.2765
   XY=              0.0000   XZ=              0.0000   YZ=              0.0000

 0.173808\CCSD=-300.1835353\CCSD(T)=-300.2312967\RMSD=8.934e-09\PG=D*H
 Normal termination of Gaussian 16 at Sun Jan 15 00:33:46 2023.
