 Gaussian 16, Revision A.03,
 Gaussian 16:  ES64L-G16RevA.03 25-Dec-2016

 ---------------------------------------------------------------
 #p ROCCSD(T)/cc-pVTZ Guess=Read SCF=(VeryTight,CDIIS,VShift=10)
 ---------------------------------------------------------------

 ---------
 O2_O2_220
 ---------
 Symbolic Z-matrix:
 Charge = -1 Multiplicity = 4

                         Standard orientation:
 ---------------------------------------------------------------------
 Center     Atomic      Atomic             Coordinates (Angstroms)
 Number     Number       Type             X           Y           Z
 ---------------------------------------------------------------------
      1          8           0        0.000000    0.000000    2.350020
      2          8           0        0.000000    0.000000    3.702400
      3          8           0        0.000000    0.000000   -3.702400
      4          8           0        0.000000    0.000000   -2.350020
 ---------------------------------------------------------------------

 SCF Done:  E(ROHF) =  -299.196528980     A.U. after    7 cycles
 E2 =    -0.9843658564D+00 EUMP2 =    -0.30018089483618D+03
 CCSD(T)
 CCSD(T)= -0.30022470241D+03

 Unable to determine electronic state:  an orbital has unidentified symmetry.
 Alpha  occ. eigenvalues --  -20.49740 -20.49740 -20.44658 -20.44658  -1.32494
 Alpha  occ. eigenvalues --   -1.32494  -0.95309  -0.95304  -0.52533  -0.52532
 Alpha  occ. eigenvalues --   -0.49027  -0.49008  -0.45134  -0.45101  -0.29253
 Alpha  occ. eigenvalues --   -0.29246  -0.27702  -0.27572
 Alpha virt. eigenvalues --    0.49332   0.50164   0.89145   0.90080   0.90090
 Alpha virt. eigenvalues --    0.90100   0.92151   0.92195   0.96284   0.98729
 Alpha virt. eigenvalues --    1.01147   1.01312   1.01607   1.01888   1.11995

 Mulliken charges and spin densities:
               1          2
     1  O   -0.328616   0.567650
     2  O   -0.171384   0.932350
     3  O   -0.171384   0.932350
     4  O   -0.328616   0.567650
 Sum of Mulliken charges =  -1.00000   3.00000

 Dipole moment (field-independent basis, Debye):
    X=             -0.0000    Y=              0.0000    Z=              0.0000  Tot=              0.0000
 Quadrupole moment (field-independent basis, Debye-Ang):
   XX=            -21.8686   YY=            -23.0062   ZZ=            -63.8631
   XY=              0.0000   XZ=              0.0000   YZ=              0.0000

 0714\CCSD=-300.1767466\CCSD(T)=-300.2247024\RMSD=6.098e-09\PG=D*H [C*(
 Normal termination of Gaussian 16 at Mon Jan 16 03:35:59 2023.
