 Gaussian 16, Revision A.03,
 Gaussian 16:  ES64L-G16RevA.03 25-Dec-2016

 ---------------------------------------------------------------
 #p ROCCSD(T)/cc-pVTZ Guess=Read SCF=(VeryTight,CDIIS,VShift=10)
 ---------------------------------------------------------------

 ---------
 O2_O2_125
 ---------
 Symbolic Z-matrix:
 Charge = -1 Multiplicity = 4

                         Standard orientation:
 ---------------------------------------------------------------------
 Center     Atomic      Atomic             Coordinates (Angstroms)
 Number     Number       Type             X           Y           Z
 ---------------------------------------------------------------------
      1          8           0        0.000000    0.000000    1.677487
      2          8           0        0.000000    0.000000    3.029867
      3          8           0        0.000000    0.000000   -3.029867
      4          8           0        0.000000    0.000000   -1.677487
 ---------------------------------------------------------------------

 SCF Done:  E(ROHF) =  -299.199609926     A.U. after    8 cycles
 E2 =    -0.9809890977D+00 EUMP2 =    -0.30018059902350D+03
 CCSD(T)
 CCSD(T)= -0.30022791532D+03

 Unable to determine electronic state:  an orbital has unidentified symmetry.
 Alpha  occ. eigenvalues --  -20.48115 -20.48115 -20.43548 -20.43548  -1.31148
 Alpha  occ. eigenvalues --   -1.31127  -0.94020  -0.93838  -0.51118  -0.51087
 Alpha  occ. eigenvalues --   -0.47664  -0.47634  -0.44002  -0.43334  -0.28044
 Alpha  occ. eigenvalues --   -0.27823  -0.26309  -0.26266
 Alpha virt. eigenvalues --    0.48235   0.54164   0.85946   0.91137   0.91375
 Alpha virt. eigenvalues --    0.91458   0.92931   0.93175   0.93785   1.00241
 Alpha virt. eigenvalues --    1.00957   1.05294   1.05657   1.12947   1.13278

 Mulliken charges and spin densities:
               1          2
     1  O   -0.310866   0.583600
     2  O   -0.189134   0.916400
     3  O   -0.189134   0.916400
     4  O   -0.310866   0.583600
 Sum of Mulliken charges =  -1.00000   3.00000

 Dipole moment (field-independent basis, Debye):
    X=             -0.0000    Y=              0.0000    Z=             -0.0000  Tot=              0.0000
 Quadrupole moment (field-independent basis, Debye-Ang):
   XX=            -21.8736   YY=            -23.0256   ZZ=            -48.9207
   XY=              0.0000   XZ=              0.0000   YZ=              0.0000

 .1701806\CCSD=-300.1800216\CCSD(T)=-300.2279153\RMSD=6.192e-09\PG=D*H
 Normal termination of Gaussian 16 at Sun Jan 15 04:43:32 2023.
