 Gaussian 16, Revision A.03,
 Gaussian 16:  ES64L-G16RevA.03 25-Dec-2016

 ---------------------------------------------------------------
 #p ROCCSD(T)/cc-pVTZ Guess=Read SCF=(VeryTight,CDIIS,VShift=10)
 ---------------------------------------------------------------

 --------
 O2_O2_21
 --------
 Symbolic Z-matrix:
 Charge = -1 Multiplicity = 4

                         Standard orientation:
 ---------------------------------------------------------------------
 Center     Atomic      Atomic             Coordinates (Angstroms)
 Number     Number       Type             X           Y           Z
 ---------------------------------------------------------------------
      1          8           0        0.000000    0.000000    0.941240
      2          8           0        0.000000    0.000000    2.293621
      3          8           0        0.000000    0.000000   -2.293621
      4          8           0        0.000000    0.000000   -0.941240
 ---------------------------------------------------------------------

 SCF Done:  E(ROHF) =  -299.195409475     A.U. after    9 cycles
 E2 =    -0.9682843735D+00 EUMP2 =    -0.30016369384903D+03
 CCSD(T)
 CCSD(T)= -0.30022117242D+03

 Unable to determine electronic state:  an orbital has unidentified symmetry.
 Alpha  occ. eigenvalues --  -20.44033 -20.44032 -20.41204 -20.41202  -1.29354
 Alpha  occ. eigenvalues --   -1.27889  -0.95391  -0.88173  -0.48849  -0.47701
 Alpha  occ. eigenvalues --   -0.46524  -0.46000  -0.44065  -0.33979  -0.27845
 Alpha  occ. eigenvalues --   -0.25456  -0.23003  -0.21716
 Alpha virt. eigenvalues --    0.52114   0.63316   0.90510   0.91861   0.92994
 Alpha virt. eigenvalues --    0.93940   0.94068   0.96869   0.99909   1.01375
 Alpha virt. eigenvalues --    1.13560   1.14179   1.19150   1.19185   1.24305

 Mulliken charges and spin densities:
               1          2
     1  O   -0.235206   0.607243
     2  O   -0.264794   0.892757
     3  O   -0.264794   0.892757
     4  O   -0.235206   0.607243
 Sum of Mulliken charges =  -1.00000   3.00000

 Dipole moment (field-independent basis, Debye):
    X=             -0.0000    Y=             -0.0000    Z=              0.0000  Tot=              0.0000
 Quadrupole moment (field-independent basis, Debye-Ang):
   XX=            -21.8132   YY=            -23.0729   ZZ=            -38.7119
   XY=              0.0000   XZ=              0.0000   YZ=              0.0000

 0.1637002\CCSD=-300.1732898\CCSD(T)=-300.2211724\RMSD=6.816e-09\PG=D*H
 Normal termination of Gaussian 16 at Sun Jan 15 00:05:50 2023.
