 Gaussian 16, Revision A.03,
 Gaussian 16:  ES64L-G16RevA.03 25-Dec-2016

 ---------------------------------------------------------------
 #p ROCCSD(T)/cc-pVTZ Guess=Read SCF=(VeryTight,CDIIS,VShift=10)
 ---------------------------------------------------------------

 --------
 O2_O2_94
 --------
 Symbolic Z-matrix:
 Charge = -1 Multiplicity = 4

                         Standard orientation:
 ---------------------------------------------------------------------
 Center     Atomic      Atomic             Coordinates (Angstroms)
 Number     Number       Type             X           Y           Z
 ---------------------------------------------------------------------
      1          8           0        0.000000    0.000000    1.458029
      2          8           0        0.000000    0.000000    2.810409
      3          8           0        0.000000    0.000000   -2.810409
      4          8           0        0.000000    0.000000   -1.458029
 ---------------------------------------------------------------------

 SCF Done:  E(ROHF) =  -299.202794982     A.U. after   11 cycles
 E2 =    -0.9790168868D+00 EUMP2 =    -0.30018181186899D+03
 CCSD(T)
 CCSD(T)= -0.30023112324D+03

 Unable to determine electronic state:  an orbital has unidentified symmetry.
 Alpha  occ. eigenvalues --  -20.47342 -20.47342 -20.43107 -20.43106  -1.30580
 Alpha  occ. eigenvalues --   -1.30507  -0.93594  -0.93044  -0.50508  -0.50416
 Alpha  occ. eigenvalues --   -0.47102  -0.46971  -0.43816  -0.42197  -0.27639
 Alpha  occ. eigenvalues --   -0.27072  -0.25839  -0.25512
 Alpha virt. eigenvalues --    0.49120   0.55924   0.90419   0.90986   0.91396
 Alpha virt. eigenvalues --    0.92098   0.92744   0.93086   0.94579   0.98749
 Alpha virt. eigenvalues --    0.99893   1.08844   1.09068   1.13379   1.13814

 Mulliken charges and spin densities:
               1          2
     1  O   -0.300029   0.591841
     2  O   -0.199971   0.908159
     3  O   -0.199971   0.908159
     4  O   -0.300029   0.591841
 Sum of Mulliken charges =  -1.00000   3.00000

 Dipole moment (field-independent basis, Debye):
    X=             -0.0000    Y=              0.0000    Z=             -0.0000  Tot=              0.0000
 Quadrupole moment (field-independent basis, Debye-Ang):
   XX=            -21.8755   YY=            -23.0473   ZZ=            -45.0560
   XY=              0.0000   XZ=              0.0000   YZ=              0.0000

 73369\CCSD=-300.1832515\CCSD(T)=-300.2311232\RMSD=5.038e-09\PG=D*H [C*
 Normal termination of Gaussian 16 at Sun Jan 15 03:21:04 2023.
