 Gaussian 16, Revision A.03,
 Gaussian 16:  ES64L-G16RevA.03 25-Dec-2016

 ----------------------------------------------------------------------
 #p ROCCSD(T,MaxCyc=350)/cc-pVTZ Guess=Read SCF=(VeryTight,MaxCycle=250
 0,CDIIS,VShift=10)
 ----------------------------------------------------------------------

 ---------
 O2_O2_160
 ---------
 Symbolic Z-matrix:
 Charge =  0 Multiplicity = 1

                         Standard orientation:
 ---------------------------------------------------------------------
 Center     Atomic      Atomic             Coordinates (Angstroms)
 Number     Number       Type             X           Y           Z
 ---------------------------------------------------------------------
      1          8           0        0.000000    0.000000    3.057949
      2          8           0        0.000000    0.000000    4.410329
      3          8           0        0.000000    0.000000   -4.410329
      4          8           0        0.000000    0.000000   -3.057949
 ---------------------------------------------------------------------

 SCF Done:  E(ROHF) =  -298.661080843     A.U. after    6 cycles
 E2 =    -0.3561189864D+01 EUMP2 =    -0.30222227070671D+03
 CCSD(T)
 CCSD(T)= -0.30030503035D+03

 The electronic state is 1-SGG.
 Alpha  occ. eigenvalues --  -20.79220 -20.79220 -20.78425 -20.78425  -1.55888
 Alpha  occ. eigenvalues --   -1.55886  -1.16176  -1.16141  -0.70908  -0.70905
 Alpha  occ. eigenvalues --   -0.66769  -0.66769  -0.66640  -0.66640  -0.31385
 Alpha  occ. eigenvalues --   -0.31385
 Alpha virt. eigenvalues --   -0.24164  -0.24164   0.26259   0.26266   0.67710
 Alpha virt. eigenvalues --    0.67742   0.71677   0.71677   0.71677   0.71677
 Alpha virt. eigenvalues --    0.75331   0.75342   0.81956   0.81956   0.81957

 Mulliken charges and spin densities:
               1          2
     1  O    0.008862   0.000000
     2  O   -0.008862   0.000000
     3  O   -0.008862   0.000000
     4  O    0.008862   0.000000
 Sum of Mulliken charges =  -0.00000   0.00000

 Dipole moment (field-independent basis, Debye):
    X=             -0.0000    Y=              0.0000    Z=              0.0000  Tot=              0.0000
 Quadrupole moment (field-independent basis, Debye-Ang):
   XX=            -20.7394   YY=            -20.7394   ZZ=            -21.3485
   XY=              0.0000   XZ=              0.0000   YZ=              0.0000

 2-0=-302.2222707\MP4SDQ=-343.6704973\CCSD=-299.9589496\CCSD(T)=-300.30
 Normal termination of Gaussian 16 at Sun Jan 15 05:47:27 2023.
