 Gaussian 16, Revision A.03,
 Gaussian 16:  ES64L-G16RevA.03 25-Dec-2016

 ----------------------------------------------------------------------
 #p ROCCSD(T,MaxCyc=350)/cc-pVTZ Guess=Read SCF=(VeryTight,MaxCycle=250
 0,CDIIS,VShift=10)
 ----------------------------------------------------------------------

 ---------
 O2_O2_163
 ---------
 Symbolic Z-matrix:
 Charge =  0 Multiplicity = 1

                         Standard orientation:
 ---------------------------------------------------------------------
 Center     Atomic      Atomic             Coordinates (Angstroms)
 Number     Number       Type             X           Y           Z
 ---------------------------------------------------------------------
      1          8           0        0.000000    0.000000    3.100425
      2          8           0        0.000000    0.000000    4.452805
      3          8           0        0.000000    0.000000   -4.452805
      4          8           0        0.000000    0.000000   -3.100425
 ---------------------------------------------------------------------

 SCF Done:  E(ROHF) =  -298.660236836     A.U. after    6 cycles
 E2 =    -0.3596850095D+01 EUMP2 =    -0.30225708693126D+03
 CCSD(T)
 CCSD(T)= -0.30030598473D+03

 The electronic state is 1-SGG.
 Alpha  occ. eigenvalues --  -20.79210 -20.79210 -20.78434 -20.78433  -1.55888
 Alpha  occ. eigenvalues --   -1.55885  -1.16174  -1.16141  -0.70907  -0.70904
 Alpha  occ. eigenvalues --   -0.66766  -0.66766  -0.66641  -0.66641  -0.31342
 Alpha  occ. eigenvalues --   -0.31342
 Alpha virt. eigenvalues --   -0.24206  -0.24206   0.26260   0.26266   0.67714
 Alpha virt. eigenvalues --    0.67739   0.71677   0.71677   0.71678   0.71678
 Alpha virt. eigenvalues --    0.75333   0.75341   0.81957   0.81957   0.81957

 Mulliken charges and spin densities:
               1          2
     1  O    0.008661   0.000000
     2  O   -0.008661   0.000000
     3  O   -0.008661   0.000000
     4  O    0.008661   0.000000
 Sum of Mulliken charges =  -0.00000   0.00000

 Dipole moment (field-independent basis, Debye):
    X=             -0.0000    Y=             -0.0000    Z=             -0.0000  Tot=              0.0000
 Quadrupole moment (field-independent basis, Debye-Ang):
   XX=            -20.7394   YY=            -20.7394   ZZ=            -21.3401
   XY=              0.0000   XZ=              0.0000   YZ=              0.0000

 2-0=-302.2570869\MP4SDQ=-345.9764651\CCSD=-299.9588656\CCSD(T)=-300.30
 Normal termination of Gaussian 16 at Sun Jan 15 05:53:29 2023.
