 Gaussian 16, Revision A.03,
 Gaussian 16:  ES64L-G16RevA.03 25-Dec-2016

 ---------------------------------------------------------------
 #p ROCCSD(T)/cc-pVTZ Guess=Read SCF=(VeryTight,CDIIS,VShift=10)
 ---------------------------------------------------------------

 ---------
 O2_O2_103
 ---------
 Symbolic Z-matrix:
 Charge =  0 Multiplicity = 1

                         Standard orientation:
 ---------------------------------------------------------------------
 Center     Atomic      Atomic             Coordinates (Angstroms)
 Number     Number       Type             X           Y           Z
 ---------------------------------------------------------------------
      1          8           0        0.000000    0.000000    2.250910
      2          8           0        0.000000    0.000000    3.603290
      3          8           0        0.000000    0.000000   -3.603290
      4          8           0        0.000000    0.000000   -2.250910
 ---------------------------------------------------------------------

 SCF Done:  E(ROHF) =  -298.682415248     A.U. after    7 cycles
 E2 =    -0.2879181879D+01 EUMP2 =    -0.30156159712745D+03
 CCSD(T)
 CCSD(T)= -0.30028159386D+03

 The electronic state is 1-SGG.
 Alpha  occ. eigenvalues --  -20.79521 -20.79520 -20.78194 -20.78194  -1.55926
 Alpha  occ. eigenvalues --   -1.55916  -1.16232  -1.16144  -0.70968  -0.70912
 Alpha  occ. eigenvalues --   -0.66878  -0.66878  -0.66596  -0.66596  -0.32472
 Alpha  occ. eigenvalues --   -0.32472
 Alpha virt. eigenvalues --   -0.23127  -0.23127   0.25745   0.26673   0.65641
 Alpha virt. eigenvalues --    0.69316   0.71604   0.71604   0.71694   0.71694
 Alpha virt. eigenvalues --    0.74569   0.76553   0.81821   0.81821   0.82051

 Mulliken charges and spin densities:
               1          2
     1  O    0.014547  -0.000000
     2  O   -0.014547  -0.000000
     3  O   -0.014547  -0.000000
     4  O    0.014547  -0.000000
 Sum of Mulliken charges =   0.00000  -0.00000

 Dipole moment (field-independent basis, Debye):
    X=             -0.0000    Y=              0.0000    Z=              0.0000  Tot=              0.0000
 Quadrupole moment (field-independent basis, Debye-Ang):
   XX=            -20.7410   YY=            -20.7410   ZZ=            -21.5489
   XY=              0.0000   XZ=              0.0000   YZ=              0.0000

 313.0165307\CCSD=-299.961338\CCSD(T)=-300.2815939\RMSD=2.355e-09\PG=D*
 Normal termination of Gaussian 16 at Sat Jan 14 22:10:37 2023.
