 Gaussian 16, Revision A.03,
 Gaussian 16:  ES64L-G16RevA.03 25-Dec-2016

 ---------------------------------------------------------------
 #p ROCCSD(T)/cc-pVTZ Guess=Read SCF=(VeryTight,CDIIS,VShift=10)
 ---------------------------------------------------------------

 --------
 O2_O2_79
 --------
 Symbolic Z-matrix:
 Charge =  0 Multiplicity = 1

                         Standard orientation:
 ---------------------------------------------------------------------
 Center     Atomic      Atomic             Coordinates (Angstroms)
 Number     Number       Type             X           Y           Z
 ---------------------------------------------------------------------
      1          8           0        0.000000    0.000000    1.911104
      2          8           0        0.000000    0.000000    3.263484
      3          8           0        0.000000    0.000000   -3.263484
      4          8           0        0.000000    0.000000   -1.911104
 ---------------------------------------------------------------------

 SCF Done:  E(ROHF) =  -298.696891452     A.U. after    7 cycles
 E2 =    -0.2583599819D+01 EUMP2 =    -0.30128049127048D+03
 CCSD(T)
 CCSD(T)= -0.30026639209D+03

 The electronic state is 1-SGG.
 Alpha  occ. eigenvalues --  -20.79834 -20.79833 -20.78048 -20.78047  -1.56000
 Alpha  occ. eigenvalues --   -1.55975  -1.16336  -1.16158  -0.71123  -0.70883
 Alpha  occ. eigenvalues --   -0.67014  -0.67014  -0.66579  -0.66579  -0.33212
 Alpha  occ. eigenvalues --   -0.33212
 Alpha virt. eigenvalues --   -0.22478  -0.22478   0.24502   0.27515   0.60489
 Alpha virt. eigenvalues --    0.70935   0.71306   0.71306   0.71877   0.71877
 Alpha virt. eigenvalues --    0.73489   0.81224   0.81224   0.82637   0.82637

 Mulliken charges and spin densities:
               1          2
     1  O    0.018660   0.000000
     2  O   -0.018660   0.000000
     3  O   -0.018660   0.000000
     4  O    0.018660   0.000000
 Sum of Mulliken charges =   0.00000   0.00000

 Dipole moment (field-independent basis, Debye):
    X=             -0.0000    Y=              0.0000    Z=              0.0000  Tot=              0.0000
 Quadrupole moment (field-independent basis, Debye-Ang):
   XX=            -20.7486   YY=            -20.7486   ZZ=            -21.6389
   XY=              0.0000   XZ=              0.0000   YZ=              0.0000

 06.2557908\CCSD=-299.9634658\CCSD(T)=-300.2663921\RMSD=6.197e-09\PG=D*
 Normal termination of Gaussian 16 at Sat Jan 14 21:32:32 2023.
