 Gaussian 16, Revision A.03,
 Gaussian 16:  ES64L-G16RevA.03 25-Dec-2016

 ----------------------------------------------------------------------
 #p ROCCSD(T,MaxCyc=250)/cc-pVTZ Guess=Read SCF=(VeryTight,MaxCycle=250
 0,CDIIS,VShift=10)
 ----------------------------------------------------------------------

 ---------
 O2_O2_121
 ---------
 Symbolic Z-matrix:
 Charge =  0 Multiplicity = 1

                         Standard orientation:
 ---------------------------------------------------------------------
 Center     Atomic      Atomic             Coordinates (Angstroms)
 Number     Number       Type             X           Y           Z
 ---------------------------------------------------------------------
      1          8           0        0.000000    0.000000    2.505764
      2          8           0        0.000000    0.000000    3.858144
      3          8           0        0.000000    0.000000   -3.858144
      4          8           0        0.000000    0.000000   -2.505764
 ---------------------------------------------------------------------

 SCF Done:  E(ROHF) =  -298.674307841     A.U. after    7 cycles
 E2 =    -0.3096060239D+01 EUMP2 =    -0.30177036807983D+03
 CCSD(T)
 CCSD(T)= -0.30029033855D+03

 The electronic state is 1-SGG.
 Alpha  occ. eigenvalues --  -20.79391 -20.79390 -20.78284 -20.78284  -1.55906
 Alpha  occ. eigenvalues --   -1.55900  -1.16203  -1.16141  -0.70931  -0.70913
 Alpha  occ. eigenvalues --   -0.66827  -0.66827  -0.66613  -0.66613  -0.32058
 Alpha  occ. eigenvalues --   -0.32058
 Alpha virt. eigenvalues --   -0.23515  -0.23515   0.26112   0.26380   0.67171
 Alpha virt. eigenvalues --    0.68210   0.71655   0.71655   0.71672   0.71672
 Alpha virt. eigenvalues --    0.75106   0.75578   0.81923   0.81923   0.81968

 Mulliken charges and spin densities:
               1          2
     1  O    0.012274   0.000000
     2  O   -0.012274   0.000000
     3  O   -0.012274   0.000000
     4  O    0.012274   0.000000
 Sum of Mulliken charges =  -0.00000   0.00000

 Dipole moment (field-independent basis, Debye):
    X=             -0.0000    Y=             -0.0000    Z=             -0.0000  Tot=              0.0000
 Quadrupole moment (field-independent basis, Debye-Ang):
   XX=            -20.7397   YY=            -20.7397   ZZ=            -21.4780
   XY=              0.0000   XZ=              0.0000   YZ=              0.0000

 2-0=-301.7703681\MP4SDQ=-320.2377448\CCSD=-299.9603524\CCSD(T)=-300.29
 Normal termination of Gaussian 16 at Sun Jan 15 03:38:27 2023.
