 Gaussian 16, Revision A.03,
 Gaussian 16:  ES64L-G16RevA.03 25-Dec-2016

 ----------------------------------------------------------------------
 #p ROCCSD(T,MaxCyc=350)/cc-pVTZ Guess=Read SCF=(VeryTight,MaxCycle=250
 0,CDIIS,VShift=10)
 ----------------------------------------------------------------------

 ---------
 O2_O2_204
 ---------
 Symbolic Z-matrix:
 Charge =  0 Multiplicity = 1

                         Standard orientation:
 ---------------------------------------------------------------------
 Center     Atomic      Atomic             Coordinates (Angstroms)
 Number     Number       Type             X           Y           Z
 ---------------------------------------------------------------------
      1          8           0        0.000000    0.000000    3.680926
      2          8           0        0.000000    0.000000    5.033306
      3          8           0        0.000000    0.000000   -5.033306
      4          8           0        0.000000    0.000000   -3.680926
 ---------------------------------------------------------------------

 SCF Done:  E(ROHF) =  -298.650435621     A.U. after    6 cycles
 E2 =    -0.4083301902D+01 EUMP2 =    -0.30273373752314D+03
 CCSD(T)
 CCSD(T)= -0.30031725457D+03

 The electronic state is 1-SGG.
 Alpha  occ. eigenvalues --  -20.79107 -20.79106 -20.78525 -20.78525  -1.55880
 Alpha  occ. eigenvalues --   -1.55879  -1.16162  -1.16141  -0.70900  -0.70899
 Alpha  occ. eigenvalues --   -0.66737  -0.66737  -0.66657  -0.66657  -0.30847
 Alpha  occ. eigenvalues --   -0.30847
 Alpha virt. eigenvalues --   -0.24691  -0.24691   0.26269   0.26269   0.67733
 Alpha virt. eigenvalues --    0.67737   0.71684   0.71684   0.71684   0.71684
 Alpha virt. eigenvalues --    0.75341   0.75342   0.81962   0.81962   0.81962

 Mulliken charges and spin densities:
               1          2
     1  O    0.006481   0.000000
     2  O   -0.006481   0.000000
     3  O   -0.006481   0.000000
     4  O    0.006481   0.000000
 Sum of Mulliken charges =   0.00000   0.00000

 Dipole moment (field-independent basis, Debye):
    X=             -0.0000    Y=              0.0000    Z=             -0.0000  Tot=              0.0000
 Quadrupole moment (field-independent basis, Debye-Ang):
   XX=            -20.7394   YY=            -20.7394   ZZ=            -21.2412
   XY=              0.0000   XZ=              0.0000   YZ=              0.0000

 2-0=-302.7337375\MP4SDQ=-385.9005742\CCSD=-299.9579499\CCSD(T)=-300.31
 Normal termination of Gaussian 16 at Sun Jan 15 07:49:59 2023.
