 Gaussian 16, Revision A.03,
 Gaussian 16:  ES64L-G16RevA.03 25-Dec-2016

 ---------------------------------------------------------------
 #p ROCCSD(T)/cc-pVTZ Guess=Read SCF=(VeryTight,CDIIS,VShift=10)
 ---------------------------------------------------------------

 --------
 O2_O2_12
 --------
 Symbolic Z-matrix:
 Charge =  0 Multiplicity = 1

                         Standard orientation:
 ---------------------------------------------------------------------
 Center     Atomic      Atomic             Coordinates (Angstroms)
 Number     Number       Type             X           Y           Z
 ---------------------------------------------------------------------
      1          8           0        0.000000    0.000000    0.962478
      2          8           0        0.000000    0.000000    2.314859
      3          8           0        0.000000    0.000000   -2.314859
      4          8           0        0.000000    0.000000   -0.962478
 ---------------------------------------------------------------------

 SCF Done:  E(ROHF) =  -298.811159084     A.U. after    9 cycles
 E2 =    -0.1654977278D+01 EUMP2 =    -0.30046613636187D+03
 CCSD(T)
 CCSD(T)= -0.30016870975D+03

 The electronic state is 1-SGG.
 Alpha  occ. eigenvalues --  -20.84351 -20.84342 -20.75987 -20.75987  -1.58303
 Alpha  occ. eigenvalues --   -1.56364  -1.21679  -1.13746  -0.77410  -0.69892
 Alpha  occ. eigenvalues --   -0.69892  -0.65857  -0.65857  -0.65570  -0.39226
 Alpha  occ. eigenvalues --   -0.39226
 Alpha virt. eigenvalues --   -0.17393  -0.17393   0.23718   0.32921   0.67174
 Alpha virt. eigenvalues --    0.67469   0.67469   0.69860   0.73535   0.73535
 Alpha virt. eigenvalues --    0.78514   0.78514   0.85337   0.86259   0.92463

 Mulliken charges and spin densities:
               1          2
     1  O    0.092574   0.000000
     2  O   -0.092574   0.000000
     3  O   -0.092574   0.000000
     4  O    0.092574   0.000000
 Sum of Mulliken charges =  -0.00000   0.00000

 Dipole moment (field-independent basis, Debye):
    X=             -0.0000    Y=             -0.0000    Z=              0.0000  Tot=              0.0000
 Quadrupole moment (field-independent basis, Debye-Ang):
   XX=            -20.8571   YY=            -20.8571   ZZ=            -22.9990
   XY=              0.0000   XZ=              0.0000   YZ=              0.0000

 0.0218527\CCSD=-299.9925539\CCSD(T)=-300.1687097\RMSD=8.105e-09\PG=D*H
 Normal termination of Gaussian 16 at Sat Jan 14 19:53:30 2023.
