 Gaussian 16, Revision A.03,
 Gaussian 16:  ES64L-G16RevA.03 25-Dec-2016

 ---------------------------------------------------------------
 #p ROCCSD(T)/cc-pVTZ Guess=Read SCF=(VeryTight,CDIIS,VShift=10)
 ---------------------------------------------------------------

 --------
 O2_O2_51
 --------
 Symbolic Z-matrix:
 Charge =  0 Multiplicity = 1

                         Standard orientation:
 ---------------------------------------------------------------------
 Center     Atomic      Atomic             Coordinates (Angstroms)
 Number     Number       Type             X           Y           Z
 ---------------------------------------------------------------------
      1          8           0        0.000000    0.000000    1.514663
      2          8           0        0.000000    0.000000    2.867043
      3          8           0        0.000000    0.000000   -2.867043
      4          8           0        0.000000    0.000000   -1.514663
 ---------------------------------------------------------------------

 SCF Done:  E(ROHF) =  -298.725150373     A.U. after    8 cycles
 E2 =    -0.2217637167D+01 EUMP2 =    -0.30094278754008D+03
 CCSD(T)
 CCSD(T)= -0.30023845588D+03

 The electronic state is 1-SGG.
 Alpha  occ. eigenvalues --  -20.80731 -20.80728 -20.77801 -20.77801  -1.56288
 Alpha  occ. eigenvalues --   -1.56178  -1.16789  -1.16123  -0.71855  -0.70600
 Alpha  occ. eigenvalues --   -0.67429  -0.67429  -0.66573  -0.66573  -0.34618
 Alpha  occ. eigenvalues --   -0.34618
 Alpha virt. eigenvalues --   -0.21371  -0.21371   0.23360   0.28884   0.59676
 Alpha virt. eigenvalues --    0.69715   0.69715   0.70254   0.72557   0.72557
 Alpha virt. eigenvalues --    0.72607   0.79206   0.79206   0.85621   0.85621

 Mulliken charges and spin densities:
               1          2
     1  O    0.027128   0.000000
     2  O   -0.027128   0.000000
     3  O   -0.027128   0.000000
     4  O    0.027128   0.000000
 Sum of Mulliken charges =  -0.00000   0.00000

 Dipole moment (field-independent basis, Debye):
    X=             -0.0000    Y=              0.0000    Z=              0.0000  Tot=              0.0000
 Quadrupole moment (field-independent basis, Debye-Ang):
   XX=            -20.7827   YY=            -20.7827   ZZ=            -21.7219
   XY=              0.0000   XZ=              0.0000   YZ=              0.0000

 01.7702542\CCSD=-299.9692573\CCSD(T)=-300.2384559\RMSD=1.808e-09\PG=D*
 Normal termination of Gaussian 16 at Sat Jan 14 20:50:16 2023.
