 Gaussian 16, Revision A.03,
 Gaussian 16:  ES64L-G16RevA.03 25-Dec-2016

 ---------------------------------------------------------------
 #p ROCCSD(T)/cc-pVTZ Guess=Read SCF=(VeryTight,CDIIS,VShift=10)
 ---------------------------------------------------------------

 --------
 O2_O2_85
 --------
 Symbolic Z-matrix:
 Charge =  0 Multiplicity = 1

                         Standard orientation:
 ---------------------------------------------------------------------
 Center     Atomic      Atomic             Coordinates (Angstroms)
 Number     Number       Type             X           Y           Z
 ---------------------------------------------------------------------
      1          8           0        0.000000    0.000000    1.996055
      2          8           0        0.000000    0.000000    3.348435
      3          8           0        0.000000    0.000000   -3.348435
      4          8           0        0.000000    0.000000   -1.996055
 ---------------------------------------------------------------------

 SCF Done:  E(ROHF) =  -298.692727246     A.U. after    7 cycles
 E2 =    -0.2658543330D+01 EUMP2 =    -0.30135127057514D+03
 CCSD(T)
 CCSD(T)= -0.30027071323D+03

 The electronic state is 1-SGG.
 Alpha  occ. eigenvalues --  -20.79732 -20.79731 -20.78087 -20.78087  -1.55973
 Alpha  occ. eigenvalues --   -1.55953  -1.16298  -1.16153  -0.71064  -0.70897
 Alpha  occ. eigenvalues --   -0.66969  -0.66969  -0.66582  -0.66582  -0.32999
 Alpha  occ. eigenvalues --   -0.32999
 Alpha virt. eigenvalues --   -0.22658  -0.22658   0.24890   0.27262   0.61988
 Alpha virt. eigenvalues --    0.70703   0.71428   0.71428   0.71802   0.71802
 Alpha virt. eigenvalues --    0.73743   0.80656   0.81459   0.81459   0.82394

 Mulliken charges and spin densities:
               1          2
     1  O    0.017488   0.000000
     2  O   -0.017488   0.000000
     3  O   -0.017488   0.000000
     4  O    0.017488   0.000000
 Sum of Mulliken charges =  -0.00000   0.00000

 Dipole moment (field-independent basis, Debye):
    X=             -0.0000    Y=             -0.0000    Z=             -0.0000  Tot=              0.0000
 Quadrupole moment (field-independent basis, Debye-Ang):
   XX=            -20.7455   YY=            -20.7455   ZZ=            -21.6181
   XY=              0.0000   XZ=              0.0000   YZ=              0.0000

 6684916\CCSD=-299.9627973\CCSD(T)=-300.2707132\RMSD=4.575e-09\PG=D*H [
 Normal termination of Gaussian 16 at Sat Jan 14 21:41:25 2023.
