 Gaussian 16, Revision A.03,
 Gaussian 16:  ES64L-G16RevA.03 25-Dec-2016

 ----------------------------------------------------------------------
 #p ROCCSD(T,MaxCyc=350)/cc-pVTZ Guess=Read SCF=(VeryTight,MaxCycle=250
 0,CDIIS,VShift=10)
 ----------------------------------------------------------------------

 ---------
 O2_O2_214
 ---------
 Symbolic Z-matrix:
 Charge =  0 Multiplicity = 1

                         Standard orientation:
 ---------------------------------------------------------------------
 Center     Atomic      Atomic             Coordinates (Angstroms)
 Number     Number       Type             X           Y           Z
 ---------------------------------------------------------------------
      1          8           0        0.000000    0.000000    3.822512
      2          8           0        0.000000    0.000000    5.174892
      3          8           0        0.000000    0.000000   -5.174892
      4          8           0        0.000000    0.000000   -3.822512
 ---------------------------------------------------------------------

 SCF Done:  E(ROHF) =  -298.648446118     A.U. after    6 cycles
 E2 =    -0.4201745372D+01 EUMP2 =    -0.30285019148987D+03
 CCSD(T)
 CCSD(T)= -0.30031957919D+03

 The electronic state is 1-SGG.
 Alpha  occ. eigenvalues --  -20.79087 -20.79087 -20.78542 -20.78542  -1.55879
 Alpha  occ. eigenvalues --   -1.55878  -1.16160  -1.16141  -0.70899  -0.70898
 Alpha  occ. eigenvalues --   -0.66732  -0.66732  -0.66660  -0.66660  -0.30747
 Alpha  occ. eigenvalues --   -0.30747
 Alpha virt. eigenvalues --   -0.24790  -0.24790   0.26270   0.26270   0.67734
 Alpha virt. eigenvalues --    0.67738   0.71685   0.71685   0.71685   0.71685
 Alpha virt. eigenvalues --    0.75342   0.75342   0.81962   0.81962   0.81963

 Mulliken charges and spin densities:
               1          2
     1  O    0.006075   0.000000
     2  O   -0.006075   0.000000
     3  O   -0.006075   0.000000
     4  O    0.006075   0.000000
 Sum of Mulliken charges =  -0.00000   0.00000

 Dipole moment (field-independent basis, Debye):
    X=             -0.0000    Y=              0.0000    Z=             -0.0000  Tot=              0.0000
 Quadrupole moment (field-independent basis, Debye-Ang):
   XX=            -20.7394   YY=            -20.7394   ZZ=            -21.2210
   XY=              0.0000   XZ=              0.0000   YZ=              0.0000

 2-0=-302.8501915\MP4SDQ=-398.2342374\CCSD=-299.9577745\CCSD(T)=-300.31
 Normal termination of Gaussian 16 at Sun Jan 15 08:18:25 2023.
