 Gaussian 16, Revision A.03,
 Gaussian 16:  ES64L-G16RevA.03 25-Dec-2016

 ----------------------------------------------------------------------
 #p ROCCSD(T,MaxCyc=250)/cc-pVTZ Guess=Read SCF=(VeryTight,MaxCycle=250
 0,CDIIS,VShift=10)
 ----------------------------------------------------------------------

 ---------
 O2_O2_104
 ---------
 Symbolic Z-matrix:
 Charge =  0 Multiplicity = 1

                         Standard orientation:
 ---------------------------------------------------------------------
 Center     Atomic      Atomic             Coordinates (Angstroms)
 Number     Number       Type             X           Y           Z
 ---------------------------------------------------------------------
      1          8           0        0.000000    0.000000    2.265068
      2          8           0        0.000000    0.000000    3.617448
      3          8           0        0.000000    0.000000   -3.617448
      4          8           0        0.000000    0.000000   -2.265068
 ---------------------------------------------------------------------

 SCF Done:  E(ROHF) =  -298.681916795     A.U. after    7 cycles
 E2 =    -0.2891304588D+01 EUMP2 =    -0.30157322138262D+03
 CCSD(T)
 CCSD(T)= -0.30028212161D+03

 The electronic state is 1-SGG.
 Alpha  occ. eigenvalues --  -20.79512 -20.79511 -20.78200 -20.78200  -1.55925
 Alpha  occ. eigenvalues --   -1.55914  -1.16230  -1.16144  -0.70965  -0.70912
 Alpha  occ. eigenvalues --   -0.66875  -0.66875  -0.66597  -0.66597  -0.32446
 Alpha  occ. eigenvalues --   -0.32446
 Alpha virt. eigenvalues --   -0.23151  -0.23151   0.25776   0.26649   0.65776
 Alpha virt. eigenvalues --    0.69234   0.71609   0.71609   0.71691   0.71691
 Alpha virt. eigenvalues --    0.74610   0.76451   0.81831   0.81831   0.82042

 Mulliken charges and spin densities:
               1          2
     1  O    0.014405   0.000000
     2  O   -0.014405   0.000000
     3  O   -0.014405   0.000000
     4  O    0.014405   0.000000
 Sum of Mulliken charges =  -0.00000   0.00000

 Dipole moment (field-independent basis, Debye):
    X=             -0.0000    Y=              0.0000    Z=             -0.0000  Tot=              0.0000
 Quadrupole moment (field-independent basis, Debye-Ang):
   XX=            -20.7408   YY=            -20.7408   ZZ=            -21.5449
   XY=              0.0000   XZ=              0.0000   YZ=              0.0000

 2-0=-301.5732214\MP4SDQ=-313.3660115\CCSD=-299.9612714\CCSD(T)=-300.28
 Normal termination of Gaussian 16 at Sun Jan 15 03:12:14 2023.
