 Gaussian 16, Revision A.03,
 Gaussian 16:  ES64L-G16RevA.03 25-Dec-2016

 ---------------------------------------------------------------
 #p ROCCSD(T)/cc-pVTZ Guess=Read SCF=(VeryTight,CDIIS,VShift=10)
 ---------------------------------------------------------------

 --------
 O2_O2_76
 --------
 Symbolic Z-matrix:
 Charge =  0 Multiplicity = 1

                         Standard orientation:
 ---------------------------------------------------------------------
 Center     Atomic      Atomic             Coordinates (Angstroms)
 Number     Number       Type             X           Y           Z
 ---------------------------------------------------------------------
      1          8           0        0.000000    0.000000    1.868627
      2          8           0        0.000000    0.000000    3.221008
      3          8           0        0.000000    0.000000   -3.221008
      4          8           0        0.000000    0.000000   -1.868627
 ---------------------------------------------------------------------

 SCF Done:  E(ROHF) =  -298.699153523     A.U. after    7 cycles
 E2 =    -0.2545773928D+01 EUMP2 =    -0.30124492745117D+03
 CCSD(T)
 CCSD(T)= -0.30026405778D+03

 The electronic state is 1-SGG.
 Alpha  occ. eigenvalues --  -20.79894 -20.79892 -20.78027 -20.78027  -1.56017
 Alpha  occ. eigenvalues --   -1.55988  -1.16359  -1.16160  -0.71160  -0.70874
 Alpha  occ. eigenvalues --   -0.67041  -0.67041  -0.66578  -0.66578  -0.33327
 Alpha  occ. eigenvalues --   -0.33327
 Alpha virt. eigenvalues --   -0.22383  -0.22383   0.24303   0.27648   0.59791
 Alpha virt. eigenvalues --    0.70994   0.71225   0.71225   0.71924   0.71924
 Alpha virt. eigenvalues --    0.73374   0.81078   0.81078   0.82795   0.82795

 Mulliken charges and spin densities:
               1          2
     1  O    0.019289   0.000000
     2  O   -0.019289   0.000000
     3  O   -0.019289   0.000000
     4  O    0.019289   0.000000
 Sum of Mulliken charges =   0.00000   0.00000

 Dipole moment (field-independent basis, Debye):
    X=             -0.0000    Y=             -0.0000    Z=             -0.0000  Tot=              0.0000
 Quadrupole moment (field-independent basis, Debye-Ang):
   XX=            -20.7505   YY=            -20.7505   ZZ=            -21.6488
   XY=              0.0000   XZ=              0.0000   YZ=              0.0000

 05.6135791\CCSD=-299.9638467\CCSD(T)=-300.2640578\RMSD=7.057e-09\PG=D*
 Normal termination of Gaussian 16 at Sat Jan 14 21:28:22 2023.
