 Gaussian 16, Revision A.03,
 Gaussian 16:  ES64L-G16RevA.03 25-Dec-2016

 ----------------------------------------------------------------------
 #p ROCCSD(T,MaxCyc=350)/cc-pVTZ Guess=Read SCF=(VeryTight,MaxCycle=250
 0,CDIIS,VShift=10)
 ----------------------------------------------------------------------

 ---------
 O2_O2_258
 ---------
 Symbolic Z-matrix:
 Charge =  0 Multiplicity = 1

                         Standard orientation:
 ---------------------------------------------------------------------
 Center     Atomic      Atomic             Coordinates (Angstroms)
 Number     Number       Type             X           Y           Z
 ---------------------------------------------------------------------
      1          8           0        0.000000    0.000000    4.445489
      2          8           0        0.000000    0.000000    5.797870
      3          8           0        0.000000    0.000000   -5.797870
      4          8           0        0.000000    0.000000   -4.445489
 ---------------------------------------------------------------------

 SCF Done:  E(ROHF) =  -298.641044720     A.U. after    6 cycles
 E2 =    -0.4722212872D+01 EUMP2 =    -0.30336325759236D+03
 CCSD(T)
 CCSD(T)= -0.30032832771D+03

 The electronic state is 1-SGG.
 Alpha  occ. eigenvalues --  -20.79022 -20.79022 -20.78602 -20.78602  -1.55876
 Alpha  occ. eigenvalues --   -1.55875  -1.16155  -1.16142  -0.70895  -0.70895
 Alpha  occ. eigenvalues --   -0.66717  -0.66717  -0.66669  -0.66669  -0.30374
 Alpha  occ. eigenvalues --   -0.30374
 Alpha virt. eigenvalues --   -0.25158  -0.25158   0.26272   0.26272   0.67738
 Alpha virt. eigenvalues --    0.67741   0.71688   0.71688   0.71688   0.71688
 Alpha virt. eigenvalues --    0.75344   0.75344   0.81965   0.81965   0.81965

 Mulliken charges and spin densities:
               1          2
     1  O    0.004673  -0.000000
     2  O   -0.004673  -0.000000
     3  O   -0.004673  -0.000000
     4  O    0.004673  -0.000000
 Sum of Mulliken charges =   0.00000  -0.00000

 Dipole moment (field-independent basis, Debye):
    X=             -0.0000    Y=              0.0000    Z=             -0.0000  Tot=              0.0000
 Quadrupole moment (field-independent basis, Debye-Ang):
   XX=            -20.7394   YY=            -20.7394   ZZ=            -21.1456
   XY=              0.0000   XZ=              0.0000   YZ=              0.0000

 P2-0=-303.3632576\MP4SDQ=-466.3859124\CCSD=-299.9571482\CCSD(T)=-300.3
 Normal termination of Gaussian 16 at Sun Jan 15 09:43:15 2023.
