 Gaussian 16, Revision A.03,
 Gaussian 16:  ES64L-G16RevA.03 25-Dec-2016

 ----------------------------------------------------------------------
 #p ROCCSD(T,MaxCyc=250)/cc-pVTZ Guess=Read SCF=(VeryTight,MaxCycle=250
 0,CDIIS,VShift=10)
 ----------------------------------------------------------------------

 ---------
 O2_O2_130
 ---------
 Symbolic Z-matrix:
 Charge =  0 Multiplicity = 1

                         Standard orientation:
 ---------------------------------------------------------------------
 Center     Atomic      Atomic             Coordinates (Angstroms)
 Number     Number       Type             X           Y           Z
 ---------------------------------------------------------------------
      1          8           0        0.000000    0.000000    2.633191
      2          8           0        0.000000    0.000000    3.985571
      3          8           0        0.000000    0.000000   -3.985571
      4          8           0        0.000000    0.000000   -2.633191
 ---------------------------------------------------------------------

 SCF Done:  E(ROHF) =  -298.670817195     A.U. after    6 cycles
 E2 =    -0.3203766915D+01 EUMP2 =    -0.30187458410947D+03
 CCSD(T)
 CCSD(T)= -0.30029416349D+03

 The electronic state is 1-SGG.
 Alpha  occ. eigenvalues --  -20.79342 -20.79341 -20.78323 -20.78323  -1.55900
 Alpha  occ. eigenvalues --   -1.55895  -1.16194  -1.16141  -0.70922  -0.70911
 Alpha  occ. eigenvalues --   -0.66810  -0.66810  -0.66620  -0.66620  -0.31880
 Alpha  occ. eigenvalues --   -0.31880
 Alpha virt. eigenvalues --   -0.23685  -0.23685   0.26188   0.26318   0.67461
 Alpha virt. eigenvalues --    0.67957   0.71664   0.71664   0.71671   0.71671
 Alpha virt. eigenvalues --    0.75226   0.75439   0.81940   0.81940   0.81959

 Mulliken charges and spin densities:
               1          2
     1  O    0.011330   0.000000
     2  O   -0.011330   0.000000
     3  O   -0.011330   0.000000
     4  O    0.011330   0.000000
 Sum of Mulliken charges =  -0.00000   0.00000

 Dipole moment (field-independent basis, Debye):
    X=             -0.0000    Y=             -0.0000    Z=             -0.0000  Tot=              0.0000
 Quadrupole moment (field-independent basis, Debye-Ang):
   XX=            -20.7395   YY=            -20.7395   ZZ=            -21.4448
   XY=              0.0000   XZ=              0.0000   YZ=              0.0000

 -0=-301.8745841\MP4SDQ=-324.6392398\CCSD=-299.9599618\CCSD(T)=-300.294
 Normal termination of Gaussian 16 at Sun Jan 15 03:52:31 2023.
