 Gaussian 16, Revision A.03,
 Gaussian 16:  ES64L-G16RevA.03 25-Dec-2016

 ----------------------------------------------------
 #p ROCCSD(T)/cc-pVTZ SCF=(VeryTight,CDIIS,VShift=10)
 ----------------------------------------------------

 -------
 O2_O2_0
 -------
 Symbolic Z-matrix:
 Charge =  0 Multiplicity = 1

                         Standard orientation:
 ---------------------------------------------------------------------
 Center     Atomic      Atomic             Coordinates (Angstroms)
 Number     Number       Type             X           Y           Z
 ---------------------------------------------------------------------
      1          8           0        0.000000    0.000000    0.792575
      2          8           0        0.000000    0.000000    2.144956
      3          8           0        0.000000    0.000000   -2.144956
      4          8           0        0.000000    0.000000   -0.792575
 ---------------------------------------------------------------------

 SCF Done:  E(ROHF) =  -298.812930642     A.U. after   11 cycles
 E2 =    -0.1506555667D+01 EUMP2 =    -0.30031948630837D+03
 CCSD(T)
 CCSD(T)= -0.30012024166D+03

 The electronic state is 1-SGG.
 Alpha  occ. eigenvalues --  -20.86409 -20.86390 -20.73712 -20.73711  -1.61655
 Alpha  occ. eigenvalues --   -1.55747  -1.28056  -1.10559  -0.81266  -0.73082
 Alpha  occ. eigenvalues --   -0.73082  -0.64697  -0.64697  -0.58117  -0.41823
 Alpha  occ. eigenvalues --   -0.41823
 Alpha virt. eigenvalues --   -0.14343  -0.14343   0.22984   0.37423   0.65793
 Alpha virt. eigenvalues --    0.67846   0.67846   0.68173   0.74113   0.74113
 Alpha virt. eigenvalues --    0.80364   0.80364   0.83467   0.84943   0.95428

 Mulliken charges and spin densities:
               1          2
     1  O    0.157224   0.000000
     2  O   -0.157224   0.000000
     3  O   -0.157224   0.000000
     4  O    0.157224   0.000000
 Sum of Mulliken charges =   0.00000   0.00000

 Dipole moment (field-independent basis, Debye):
    X=             -0.0000    Y=             -0.0000    Z=             -0.0000  Tot=              0.0000
 Quadrupole moment (field-independent basis, Debye-Ang):
   XX=            -20.7437   YY=            -20.7437   ZZ=            -24.9555
   XY=              0.0000   XZ=              0.0000   YZ=              0.0000

 SD=-299.9719317\CCSD(T)=-300.1202417\RMSD=8.576e-09\PG=D*H [C*(O1O1.O1
 Normal termination of Gaussian 16 at Sat Jan 14 19:36:43 2023.
