 Gaussian 16, Revision A.03,
 Gaussian 16:  ES64L-G16RevA.03 25-Dec-2016

 ---------------------------------------------------------------
 #p ROCCSD(T)/cc-pVTZ Guess=Read SCF=(VeryTight,CDIIS,VShift=10)
 ---------------------------------------------------------------

 --------
 O2_O2_56
 --------
 Symbolic Z-matrix:
 Charge =  0 Multiplicity = 1

                         Standard orientation:
 ---------------------------------------------------------------------
 Center     Atomic      Atomic             Coordinates (Angstroms)
 Number     Number       Type             X           Y           Z
 ---------------------------------------------------------------------
      1          8           0        0.000000    0.000000    1.585456
      2          8           0        0.000000    0.000000    2.937836
      3          8           0        0.000000    0.000000   -2.937836
      4          8           0        0.000000    0.000000   -1.585456
 ---------------------------------------------------------------------

 SCF Done:  E(ROHF) =  -298.718614540     A.U. after    8 cycles
 E2 =    -0.2285469445D+01 EUMP2 =    -0.30100408398521D+03
 CCSD(T)
 CCSD(T)= -0.30024464674D+03

 The electronic state is 1-SGG.
 Alpha  occ. eigenvalues --  -20.80500 -20.80498 -20.77859 -20.77859  -1.56208
 Alpha  occ. eigenvalues --   -1.56127  -1.16653  -1.16148  -0.71636  -0.70702
 Alpha  occ. eigenvalues --   -0.67320  -0.67320  -0.66576  -0.66576  -0.34300
 Alpha  occ. eigenvalues --   -0.34300
 Alpha virt. eigenvalues --   -0.21614  -0.21614   0.23395   0.28617   0.58550
 Alpha virt. eigenvalues --    0.70164   0.70164   0.70554   0.72407   0.72407
 Alpha virt. eigenvalues --    0.72753   0.79633   0.79633   0.84797   0.84797

 Mulliken charges and spin densities:
               1          2
     1  O    0.024900   0.000000
     2  O   -0.024900   0.000000
     3  O   -0.024900   0.000000
     4  O    0.024900   0.000000
 Sum of Mulliken charges =   0.00000   0.00000

 Dipole moment (field-independent basis, Debye):
    X=             -0.0000    Y=             -0.0000    Z=              0.0000  Tot=              0.0000
 Quadrupole moment (field-independent basis, Debye-Ang):
   XX=            -20.7734   YY=            -20.7734   ZZ=            -21.7058
   XY=              0.0000   XZ=              0.0000   YZ=              0.0000

 .3374483\CCSD=-299.9677246\CCSD(T)=-300.2446467\RMSD=1.531e-09\PG=D*H
 Normal termination of Gaussian 16 at Sat Jan 14 20:57:30 2023.
