 Gaussian 16, Revision A.03,
 Gaussian 16:  ES64L-G16RevA.03 25-Dec-2016

 ----------------------------------------------------------------------
 #p ROCCSD(T,MaxCyc=350)/cc-pVTZ Guess=Read SCF=(VeryTight,MaxCycle=250
 0,CDIIS,VShift=10)
 ----------------------------------------------------------------------

 ---------
 O2_O2_170
 ---------
 Symbolic Z-matrix:
 Charge =  0 Multiplicity = 1

                         Standard orientation:
 ---------------------------------------------------------------------
 Center     Atomic      Atomic             Coordinates (Angstroms)
 Number     Number       Type             X           Y           Z
 ---------------------------------------------------------------------
      1          8           0        0.000000    0.000000    3.199535
      2          8           0        0.000000    0.000000    4.551915
      3          8           0        0.000000    0.000000   -4.551915
      4          8           0        0.000000    0.000000   -3.199535
 ---------------------------------------------------------------------

 SCF Done:  E(ROHF) =  -298.658343874     A.U. after    6 cycles
 E2 =    -0.3680015772D+01 EUMP2 =    -0.30233835964570D+03
 CCSD(T)
 CCSD(T)= -0.30030813941D+03

 The electronic state is 1-SGG.
 Alpha  occ. eigenvalues --  -20.79189 -20.79189 -20.78452 -20.78452  -1.55886
 Alpha  occ. eigenvalues --   -1.55884  -1.16172  -1.16141  -0.70905  -0.70903
 Alpha  occ. eigenvalues --   -0.66760  -0.66760  -0.66645  -0.66645  -0.31247
 Alpha  occ. eigenvalues --   -0.31247
 Alpha virt. eigenvalues --   -0.24299  -0.24299   0.26263   0.26266   0.67721
 Alpha virt. eigenvalues --    0.67736   0.71679   0.71679   0.71679   0.71679
 Alpha virt. eigenvalues --    0.75336   0.75340   0.81958   0.81958   0.81958

 Mulliken charges and spin densities:
               1          2
     1  O    0.008217   0.000000
     2  O   -0.008217   0.000000
     3  O   -0.008217   0.000000
     4  O    0.008217   0.000000
 Sum of Mulliken charges =   0.00000   0.00000

 Dipole moment (field-independent basis, Debye):
    X=             -0.0000    Y=              0.0000    Z=             -0.0000  Tot=              0.0000
 Quadrupole moment (field-independent basis, Debye-Ang):
   XX=            -20.7394   YY=            -20.7394   ZZ=            -21.3211
   XY=              0.0000   XZ=              0.0000   YZ=              0.0000

 2-0=-302.3383596\MP4SDQ=-351.6643885\CCSD=-299.9586828\CCSD(T)=-300.30
 Normal termination of Gaussian 16 at Sun Jan 15 06:15:45 2023.
