 Gaussian 16, Revision A.03,
 Gaussian 16:  ES64L-G16RevA.03 25-Dec-2016

 ----------------------------------------------------------------------
 #p ROCCSD(T,MaxCyc=350)/cc-pVTZ Guess=Read SCF=(VeryTight,MaxCycle=250
 0,CDIIS,VShift=10)
 ----------------------------------------------------------------------

 ---------
 O2_O2_232
 ---------
 Symbolic Z-matrix:
 Charge =  0 Multiplicity = 1

                         Standard orientation:
 ---------------------------------------------------------------------
 Center     Atomic      Atomic             Coordinates (Angstroms)
 Number     Number       Type             X           Y           Z
 ---------------------------------------------------------------------
      1          8           0        0.000000    0.000000    4.077367
      2          8           0        0.000000    0.000000    5.429747
      3          8           0        0.000000    0.000000   -5.429747
      4          8           0        0.000000    0.000000   -4.077367
 ---------------------------------------------------------------------

 SCF Done:  E(ROHF) =  -298.645175246     A.U. after    6 cycles
 E2 =    -0.4414786661D+01 EUMP2 =    -0.30305996190697D+03
 CCSD(T)
 CCSD(T)= -0.30032342514D+03

 The electronic state is 1-SGG.
 Alpha  occ. eigenvalues --  -20.79058 -20.79057 -20.78570 -20.78570  -1.55878
 Alpha  occ. eigenvalues --   -1.55877  -1.16158  -1.16142  -0.70897  -0.70896
 Alpha  occ. eigenvalues --   -0.66725  -0.66725  -0.66664  -0.66664  -0.30582
 Alpha  occ. eigenvalues --   -0.30582
 Alpha virt. eigenvalues --   -0.24952  -0.24952   0.26271   0.26271   0.67736
 Alpha virt. eigenvalues --    0.67739   0.71686   0.71686   0.71686   0.71686
 Alpha virt. eigenvalues --    0.75343   0.75343   0.81964   0.81964   0.81964

 Mulliken charges and spin densities:
               1          2
     1  O    0.005434   0.000000
     2  O   -0.005434   0.000000
     3  O   -0.005434   0.000000
     4  O    0.005434   0.000000
 Sum of Mulliken charges =  -0.00000   0.00000

 Dipole moment (field-independent basis, Debye):
    X=             -0.0000    Y=             -0.0000    Z=              0.0000  Tot=              0.0000
 Quadrupole moment (field-independent basis, Debye-Ang):
   XX=            -20.7394   YY=            -20.7394   ZZ=            -21.1877
   XY=              0.0000   XZ=              0.0000   YZ=              0.0000

 P2-0=-303.0599619\MP4SDQ=-423.2759888\CCSD=-299.9574924\CCSD(T)=-300.3
 Normal termination of Gaussian 16 at Sun Jan 15 08:51:49 2023.
