 Gaussian 16, Revision A.03,
 Gaussian 16:  ES64L-G16RevA.03 25-Dec-2016

 ----------------------------------------------------------------------
 #p ROCCSD(T,MaxCyc=350)/cc-pVTZ Guess=Read SCF=(VeryTight,MaxCycle=250
 0,CDIIS,VShift=10)
 ----------------------------------------------------------------------

 ---------
 O2_O2_162
 ---------
 Symbolic Z-matrix:
 Charge =  0 Multiplicity = 1

                         Standard orientation:
 ---------------------------------------------------------------------
 Center     Atomic      Atomic             Coordinates (Angstroms)
 Number     Number       Type             X           Y           Z
 ---------------------------------------------------------------------
      1          8           0        0.000000    0.000000    3.086266
      2          8           0        0.000000    0.000000    4.438646
      3          8           0        0.000000    0.000000   -4.438646
      4          8           0        0.000000    0.000000   -3.086266
 ---------------------------------------------------------------------

 SCF Done:  E(ROHF) =  -298.660515914     A.U. after    6 cycles
 E2 =    -0.3584964720D+01 EUMP2 =    -0.30224548063405D+03
 CCSD(T)
 CCSD(T)= -0.30030566243D+03

 The electronic state is 1-SGG.
 Alpha  occ. eigenvalues --  -20.79213 -20.79213 -20.78431 -20.78431  -1.55888
 Alpha  occ. eigenvalues --   -1.55885  -1.16175  -1.16141  -0.70907  -0.70904
 Alpha  occ. eigenvalues --   -0.66767  -0.66767  -0.66641  -0.66641  -0.31356
 Alpha  occ. eigenvalues --   -0.31356
 Alpha virt. eigenvalues --   -0.24192  -0.24192   0.26260   0.26266   0.67713
 Alpha virt. eigenvalues --    0.67740   0.71677   0.71677   0.71678   0.71678
 Alpha virt. eigenvalues --    0.75332   0.75342   0.81956   0.81956   0.81957

 Mulliken charges and spin densities:
               1          2
     1  O    0.008727   0.000000
     2  O   -0.008727   0.000000
     3  O   -0.008727   0.000000
     4  O    0.008727   0.000000
 Sum of Mulliken charges =  -0.00000   0.00000

 Dipole moment (field-independent basis, Debye):
    X=             -0.0000    Y=              0.0000    Z=             -0.0000  Tot=              0.0000
 Quadrupole moment (field-independent basis, Debye-Ang):
   XX=            -20.7394   YY=            -20.7394   ZZ=            -21.3429
   XY=              0.0000   XZ=              0.0000   YZ=              0.0000

 2-0=-302.2454806\MP4SDQ=-345.1991641\CCSD=-299.9588902\CCSD(T)=-300.30
 Normal termination of Gaussian 16 at Sun Jan 15 05:51:18 2023.
