 Gaussian 16, Revision A.03,
 Gaussian 16:  ES64L-G16RevA.03 25-Dec-2016

 ---------------------------------------------------------------
 #p ROCCSD(T)/cc-pVTZ Guess=Read SCF=(VeryTight,CDIIS,VShift=10)
 ---------------------------------------------------------------

 -------
 O2_O2_3
 -------
 Symbolic Z-matrix:
 Charge =  0 Multiplicity = 1

                         Standard orientation:
 ---------------------------------------------------------------------
 Center     Atomic      Atomic             Coordinates (Angstroms)
 Number     Number       Type             X           Y           Z
 ---------------------------------------------------------------------
      1          8           0        0.000000    0.000000    0.835051
      2          8           0        0.000000    0.000000    2.187431
      3          8           0        0.000000    0.000000   -2.187431
      4          8           0        0.000000    0.000000   -0.835051
 ---------------------------------------------------------------------

 SCF Done:  E(ROHF) =  -298.819462815     A.U. after   10 cycles
 E2 =    -0.1537932220D+01 EUMP2 =    -0.30035739503574D+03
 CCSD(T)
 CCSD(T)= -0.30013757453D+03

 The electronic state is 1-SGG.
 Alpha  occ. eigenvalues --  -20.85786 -20.85771 -20.74446 -20.74446  -1.60346
 Alpha  occ. eigenvalues --   -1.55967  -1.26001  -1.11552  -0.80240  -0.71931
 Alpha  occ. eigenvalues --   -0.71931  -0.65072  -0.65072  -0.60643  -0.41137
 Alpha  occ. eigenvalues --   -0.41137
 Alpha virt. eigenvalues --   -0.15241  -0.15241   0.23329   0.35863   0.66198
 Alpha virt. eigenvalues --    0.67879   0.67879   0.68725   0.73925   0.73925
 Alpha virt. eigenvalues --    0.79775   0.79775   0.84204   0.85299   0.95139

 Mulliken charges and spin densities:
               1          2
     1  O    0.136561   0.000000
     2  O   -0.136561   0.000000
     3  O   -0.136561   0.000000
     4  O    0.136561   0.000000
 Sum of Mulliken charges =  -0.00000   0.00000

 Dipole moment (field-independent basis, Debye):
    X=             -0.0000    Y=              0.0000    Z=              0.0000  Tot=              0.0000
 Quadrupole moment (field-independent basis, Debye-Ang):
   XX=            -20.7896   YY=            -20.7896   ZZ=            -24.3144
   XY=              0.0000   XZ=              0.0000   YZ=              0.0000

 0279802\CCSD=-299.9832598\CCSD(T)=-300.1375745\RMSD=1.196e-09\PG=D*H [
 Normal termination of Gaussian 16 at Sat Jan 14 19:40:58 2023.
