 Gaussian 16, Revision A.03,
 Gaussian 16:  ES64L-G16RevA.03 25-Dec-2016

 ---------------------------------------------------------------
 #p ROCCSD(T)/cc-pVTZ Guess=Read SCF=(VeryTight,CDIIS,VShift=10)
 ---------------------------------------------------------------

 --------
 O2_O2_24
 --------
 Symbolic Z-matrix:
 Charge =  0 Multiplicity = 1

                         Standard orientation:
 ---------------------------------------------------------------------
 Center     Atomic      Atomic             Coordinates (Angstroms)
 Number     Number       Type             X           Y           Z
 ---------------------------------------------------------------------
      1          8           0        0.000000    0.000000    1.132382
      2          8           0        0.000000    0.000000    2.484762
      3          8           0        0.000000    0.000000   -2.484762
      4          8           0        0.000000    0.000000   -1.132382
 ---------------------------------------------------------------------

 SCF Done:  E(ROHF) =  -298.779691367     A.U. after    8 cycles
 E2 =    -0.1830346102D+01 EUMP2 =    -0.30061003746938D+03
 CCSD(T)
 CCSD(T)= -0.30019405480D+03

 The electronic state is 1-SGG.
 Alpha  occ. eigenvalues --  -20.82854 -20.82849 -20.77044 -20.77044  -1.57200
 Alpha  occ. eigenvalues --   -1.56467  -1.18816  -1.15266  -0.74634  -0.68650
 Alpha  occ. eigenvalues --   -0.68608  -0.68608  -0.66352  -0.66352  -0.37258
 Alpha  occ. eigenvalues --   -0.37258
 Alpha virt. eigenvalues --   -0.19261  -0.19261   0.23708   0.30944   0.67236
 Alpha virt. eigenvalues --    0.67236   0.68197   0.71085   0.73240   0.73240
 Alpha virt. eigenvalues --    0.77924   0.77924   0.78167   0.87182   0.88405

 Mulliken charges and spin densities:
               1          2
     1  O    0.057749   0.000000
     2  O   -0.057749   0.000000
     3  O   -0.057749   0.000000
     4  O    0.057749   0.000000
 Sum of Mulliken charges =  -0.00000   0.00000

 Dipole moment (field-independent basis, Debye):
    X=             -0.0000    Y=              0.0000    Z=             -0.0000  Tot=              0.0000
 Quadrupole moment (field-independent basis, Debye-Ang):
   XX=            -20.8554   YY=            -20.8554   ZZ=            -22.1504
   XY=              0.0000   XZ=              0.0000   YZ=              0.0000

 00.1552298\CCSD=-299.9849058\CCSD(T)=-300.1940548\RMSD=5.910e-09\PG=D*
 Normal termination of Gaussian 16 at Sat Jan 14 20:11:02 2023.
