 Gaussian 16, Revision A.03,
 Gaussian 16:  ES64L-G16RevA.03 25-Dec-2016

 ----------------------------------------------------------------------
 #p ROCCSD(T,MaxCyc=250)/cc-pVTZ Guess=Read SCF=(VeryTight,MaxCycle=250
 0,CDIIS,VShift=10)
 ----------------------------------------------------------------------

 ---------
 O2_O2_113
 ---------
 Symbolic Z-matrix:
 Charge =  0 Multiplicity = 1

                         Standard orientation:
 ---------------------------------------------------------------------
 Center     Atomic      Atomic             Coordinates (Angstroms)
 Number     Number       Type             X           Y           Z
 ---------------------------------------------------------------------
      1          8           0        0.000000    0.000000    2.392496
      2          8           0        0.000000    0.000000    3.744876
      3          8           0        0.000000    0.000000   -3.744876
      4          8           0        0.000000    0.000000   -2.392496
 ---------------------------------------------------------------------

 SCF Done:  E(ROHF) =  -298.677701455     A.U. after    7 cycles
 E2 =    -0.2999974904D+01 EUMP2 =    -0.30167767635895D+03
 CCSD(T)
 CCSD(T)= -0.30028665392D+03

 The electronic state is 1-SGG.
 Alpha  occ. eigenvalues --  -20.79442 -20.79442 -20.78246 -20.78246  -1.55913
 Alpha  occ. eigenvalues --   -1.55905  -1.16213  -1.16142  -0.70943  -0.70913
 Alpha  occ. eigenvalues --   -0.66847  -0.66847  -0.66605  -0.66605  -0.32231
 Alpha  occ. eigenvalues --   -0.32231
 Alpha virt. eigenvalues --   -0.23351  -0.23351   0.25995   0.26477   0.66698
 Alpha virt. eigenvalues --    0.68594   0.71640   0.71640   0.71677   0.71677
 Alpha virt. eigenvalues --    0.74922   0.75838   0.81894   0.81894   0.81990

 Mulliken charges and spin densities:
               1          2
     1  O    0.013215   0.000000
     2  O   -0.013215   0.000000
     3  O   -0.013215   0.000000
     4  O    0.013215   0.000000
 Sum of Mulliken charges =  -0.00000   0.00000

 Dipole moment (field-independent basis, Debye):
    X=             -0.0000    Y=              0.0000    Z=             -0.0000  Tot=              0.0000
 Quadrupole moment (field-independent basis, Debye-Ang):
   XX=            -20.7401   YY=            -20.7401   ZZ=            -21.5091
   XY=              0.0000   XZ=              0.0000   YZ=              0.0000

 2-0=-301.6776764\MP4SDQ=-316.779182\CCSD=-299.9607495\CCSD(T)=-300.286
 Normal termination of Gaussian 16 at Sun Jan 15 03:26:16 2023.
