 Gaussian 16, Revision A.03,
 Gaussian 16:  ES64L-G16RevA.03 25-Dec-2016

 ----------------------------------------------------------------------
 #p ROCCSD(T,MaxCyc=250)/cc-pVTZ Guess=Read SCF=(VeryTight,MaxCycle=250
 0,CDIIS,VShift=10)
 ----------------------------------------------------------------------

 ---------
 O2_O2_110
 ---------
 Symbolic Z-matrix:
 Charge =  0 Multiplicity = 1

                         Standard orientation:
 ---------------------------------------------------------------------
 Center     Atomic      Atomic             Coordinates (Angstroms)
 Number     Number       Type             X           Y           Z
 ---------------------------------------------------------------------
      1          8           0        0.000000    0.000000    2.350020
      2          8           0        0.000000    0.000000    3.702400
      3          8           0        0.000000    0.000000   -3.702400
      4          8           0        0.000000    0.000000   -2.350020
 ---------------------------------------------------------------------

 SCF Done:  E(ROHF) =  -298.679055597     A.U. after    7 cycles
 E2 =    -0.2963829992D+01 EUMP2 =    -0.30164288558897D+03
 CCSD(T)
 CCSD(T)= -0.30028519450D+03

 The electronic state is 1-SGG.
 Alpha  occ. eigenvalues --  -20.79464 -20.79463 -20.78231 -20.78231  -1.55916
 Alpha  occ. eigenvalues --   -1.55908  -1.16218  -1.16143  -0.70949  -0.70913
 Alpha  occ. eigenvalues --   -0.66855  -0.66855  -0.66603  -0.66603  -0.32300
 Alpha  occ. eigenvalues --   -0.32300
 Alpha virt. eigenvalues --   -0.23286  -0.23286   0.25934   0.26526   0.66444
 Alpha virt. eigenvalues --    0.68784   0.71632   0.71632   0.71680   0.71680
 Alpha virt. eigenvalues --    0.74831   0.75992   0.81878   0.81878   0.82003

 Mulliken charges and spin densities:
               1          2
     1  O    0.013595   0.000000
     2  O   -0.013595   0.000000
     3  O   -0.013595   0.000000
     4  O    0.013595   0.000000
 Sum of Mulliken charges =   0.00000   0.00000

 Dipole moment (field-independent basis, Debye):
    X=             -0.0000    Y=              0.0000    Z=             -0.0000  Tot=              0.0000
 Quadrupole moment (field-independent basis, Debye-Ang):
   XX=            -20.7403   YY=            -20.7403   ZZ=            -21.5210
   XY=              0.0000   XZ=              0.0000   YZ=              0.0000

 2-0=-301.6428856\MP4SDQ=-315.5868728\CCSD=-299.9609143\CCSD(T)=-300.28
 Normal termination of Gaussian 16 at Sun Jan 15 03:21:35 2023.
