 Gaussian 16, Revision A.03,
 Gaussian 16:  ES64L-G16RevA.03 25-Dec-2016

 ---------------------------------------------------------------
 #p ROCCSD(T)/cc-pVTZ Guess=Read SCF=(VeryTight,CDIIS,VShift=10)
 ---------------------------------------------------------------

 --------
 O2_O2_72
 --------
 Symbolic Z-matrix:
 Charge =  0 Multiplicity = 1

                         Standard orientation:
 ---------------------------------------------------------------------
 Center     Atomic      Atomic             Coordinates (Angstroms)
 Number     Number       Type             X           Y           Z
 ---------------------------------------------------------------------
      1          8           0        0.000000    0.000000    1.811994
      2          8           0        0.000000    0.000000    3.164374
      3          8           0        0.000000    0.000000   -3.164374
      4          8           0        0.000000    0.000000   -1.811994
 ---------------------------------------------------------------------

 SCF Done:  E(ROHF) =  -298.702386060     A.U. after    7 cycles
 E2 =    -0.2494917942D+01 EUMP2 =    -0.30119730400193D+03
 CCSD(T)
 CCSD(T)= -0.30026075347D+03

 The electronic state is 1-SGG.
 Alpha  occ. eigenvalues --  -20.79983 -20.79982 -20.77998 -20.77998  -1.56043
 Alpha  occ. eigenvalues --   -1.56008  -1.16397  -1.16162  -0.71219  -0.70857
 Alpha  occ. eigenvalues --   -0.67081  -0.67081  -0.66577  -0.66577  -0.33491
 Alpha  occ. eigenvalues --   -0.33491
 Alpha virt. eigenvalues --   -0.22249  -0.22249   0.24046   0.27832   0.58987
 Alpha virt. eigenvalues --    0.71017   0.71092   0.71092   0.71998   0.71998
 Alpha virt. eigenvalues --    0.73231   0.80852   0.80852   0.83054   0.83054

 Mulliken charges and spin densities:
               1          2
     1  O    0.020183  -0.000000
     2  O   -0.020183  -0.000000
     3  O   -0.020183  -0.000000
     4  O    0.020183  -0.000000
 Sum of Mulliken charges =   0.00000  -0.00000

 Dipole moment (field-independent basis, Debye):
    X=             -0.0000    Y=             -0.0000    Z=              0.0000  Tot=              0.0000
 Quadrupole moment (field-independent basis, Debye-Ang):
   XX=            -20.7535   YY=            -20.7535   ZZ=            -21.6613
   XY=              0.0000   XZ=              0.0000   YZ=              0.0000

 .8213484\CCSD=-299.9644199\CCSD(T)=-300.2607535\RMSD=8.064e-09\PG=D*H
 Normal termination of Gaussian 16 at Sat Jan 14 21:22:38 2023.
