 Gaussian 16, Revision A.03,
 Gaussian 16:  ES64L-G16RevA.03 25-Dec-2016

 ----------------------------------------------------------------------
 #p ROCCSD(T,MaxCyc=250)/cc-pVTZ Guess=Read SCF=(VeryTight,MaxCycle=250
 0,CDIIS,VShift=10)
 ----------------------------------------------------------------------

 ---------
 O2_O2_142
 ---------
 Symbolic Z-matrix:
 Charge =  0 Multiplicity = 1

                         Standard orientation:
 ---------------------------------------------------------------------
 Center     Atomic      Atomic             Coordinates (Angstroms)
 Number     Number       Type             X           Y           Z
 ---------------------------------------------------------------------
      1          8           0        0.000000    0.000000    2.803094
      2          8           0        0.000000    0.000000    4.155474
      3          8           0        0.000000    0.000000   -4.155474
      4          8           0        0.000000    0.000000   -2.803094
 ---------------------------------------------------------------------

 SCF Done:  E(ROHF) =  -298.666610842     A.U. after    6 cycles
 E2 =    -0.3346956274D+01 EUMP2 =    -0.30201356711548D+03
 CCSD(T)
 CCSD(T)= -0.30029882047D+03

 The electronic state is 1-SGG.
 Alpha  occ. eigenvalues --  -20.79287 -20.79286 -20.78368 -20.78368  -1.55894
 Alpha  occ. eigenvalues --   -1.55890  -1.16185  -1.16141  -0.70914  -0.70909
 Alpha  occ. eigenvalues --   -0.66791  -0.66791  -0.66629  -0.66629  -0.31666
 Alpha  occ. eigenvalues --   -0.31666
 Alpha virt. eigenvalues --   -0.23891  -0.23891   0.26235   0.26280   0.67634
 Alpha virt. eigenvalues --    0.67804   0.71671   0.71671   0.71673   0.71673
 Alpha virt. eigenvalues --    0.75299   0.75368   0.81950   0.81950   0.81955

 Mulliken charges and spin densities:
               1          2
     1  O    0.010232   0.000000
     2  O   -0.010232   0.000000
     3  O   -0.010232   0.000000
     4  O    0.010232   0.000000
 Sum of Mulliken charges =  -0.00000   0.00000

 Dipole moment (field-independent basis, Debye):
    X=             -0.0000    Y=             -0.0000    Z=             -0.0000  Tot=              0.0000
 Quadrupole moment (field-independent basis, Debye-Ang):
   XX=            -20.7394   YY=            -20.7394   ZZ=            -21.4036
   XY=              0.0000   XZ=              0.0000   YZ=              0.0000

 2-0=-302.0135671\MP4SDQ=-331.409628\CCSD=-299.9595111\CCSD(T)=-300.298
 Normal termination of Gaussian 16 at Sun Jan 15 04:12:13 2023.
