 Gaussian 16, Revision A.03,
 Gaussian 16:  ES64L-G16RevA.03 25-Dec-2016

 ----------------------------------------------------------------------
 #p ROCCSD(T,MaxCyc=250)/cc-pVTZ Guess=Read SCF=(VeryTight,MaxCycle=250
 0,CDIIS,VShift=10)
 ----------------------------------------------------------------------

 ---------
 O2_O2_115
 ---------
 Symbolic Z-matrix:
 Charge =  0 Multiplicity = 1

                         Standard orientation:
 ---------------------------------------------------------------------
 Center     Atomic      Atomic             Coordinates (Angstroms)
 Number     Number       Type             X           Y           Z
 ---------------------------------------------------------------------
      1          8           0        0.000000    0.000000    2.420813
      2          8           0        0.000000    0.000000    3.773193
      3          8           0        0.000000    0.000000   -3.773193
      4          8           0        0.000000    0.000000   -2.420813
 ---------------------------------------------------------------------

 SCF Done:  E(ROHF) =  -298.676824552     A.U. after    7 cycles
 E2 =    -0.3024034060D+01 EUMP2 =    -0.30170085861205D+03
 CCSD(T)
 CCSD(T)= -0.30028760336D+03

 The electronic state is 1-SGG.
 Alpha  occ. eigenvalues --  -20.79428 -20.79428 -20.78256 -20.78256  -1.55911
 Alpha  occ. eigenvalues --   -1.55904  -1.16210  -1.16142  -0.70940  -0.70913
 Alpha  occ. eigenvalues --   -0.66842  -0.66842  -0.66607  -0.66607  -0.32186
 Alpha  occ. eigenvalues --   -0.32186
 Alpha virt. eigenvalues --   -0.23393  -0.23393   0.26030   0.26449   0.66841
 Alpha virt. eigenvalues --    0.68482   0.71644   0.71644   0.71675   0.71675
 Alpha virt. eigenvalues --    0.74976   0.75755   0.81903   0.81903   0.81983

 Mulliken charges and spin densities:
               1          2
     1  O    0.012970   0.000000
     2  O   -0.012970   0.000000
     3  O   -0.012970   0.000000
     4  O    0.012970   0.000000
 Sum of Mulliken charges =  -0.00000   0.00000

 Dipole moment (field-independent basis, Debye):
    X=             -0.0000    Y=             -0.0000    Z=              0.0000  Tot=              0.0000
 Quadrupole moment (field-independent basis, Debye-Ang):
   XX=            -20.7399   YY=            -20.7399   ZZ=            -21.5012
   XY=              0.0000   XZ=              0.0000   YZ=              0.0000

 2-0=-301.7008586\MP4SDQ=-317.6052655\CCSD=-299.9606453\CCSD(T)=-300.28
 Normal termination of Gaussian 16 at Sun Jan 15 03:29:06 2023.
