 Gaussian 16, Revision A.03,
 Gaussian 16:  ES64L-G16RevA.03 25-Dec-2016

 ----------------------------------------------------------------------
 #p ROCCSD(T,MaxCyc=350)/cc-pVTZ Guess=Read SCF=(VeryTight,MaxCycle=250
 0,CDIIS,VShift=10)
 ----------------------------------------------------------------------

 ---------
 O2_O2_184
 ---------
 Symbolic Z-matrix:
 Charge =  0 Multiplicity = 1

                         Standard orientation:
 ---------------------------------------------------------------------
 Center     Atomic      Atomic             Coordinates (Angstroms)
 Number     Number       Type             X           Y           Z
 ---------------------------------------------------------------------
      1          8           0        0.000000    0.000000    3.397755
      2          8           0        0.000000    0.000000    4.750135
      3          8           0        0.000000    0.000000   -4.750135
      4          8           0        0.000000    0.000000   -3.397755
 ---------------------------------------------------------------------

 SCF Done:  E(ROHF) =  -298.654849533     A.U. after    6 cycles
 E2 =    -0.3846195670D+01 EUMP2 =    -0.30250104520279D+03
 CCSD(T)
 CCSD(T)= -0.30031214174D+03

 The electronic state is 1-SGG.
 Alpha  occ. eigenvalues --  -20.79151 -20.79151 -20.78485 -20.78485  -1.55883
 Alpha  occ. eigenvalues --   -1.55882  -1.16167  -1.16141  -0.70903  -0.70901
 Alpha  occ. eigenvalues --   -0.66749  -0.66749  -0.66651  -0.66651  -0.31070
 Alpha  occ. eigenvalues --   -0.31070
 Alpha virt. eigenvalues --   -0.24472  -0.24472   0.26266   0.26267   0.67728
 Alpha virt. eigenvalues --    0.67735   0.71681   0.71681   0.71681   0.71681
 Alpha virt. eigenvalues --    0.75339   0.75341   0.81960   0.81960   0.81960

 Mulliken charges and spin densities:
               1          2
     1  O    0.007426   0.000000
     2  O   -0.007426   0.000000
     3  O   -0.007426   0.000000
     4  O    0.007426   0.000000
 Sum of Mulliken charges =  -0.00000   0.00000

 Dipole moment (field-independent basis, Debye):
    X=             -0.0000    Y=              0.0000    Z=             -0.0000  Tot=              0.0000
 Quadrupole moment (field-independent basis, Debye-Ang):
   XX=            -20.7394   YY=            -20.7394   ZZ=            -21.2859
   XY=              0.0000   XZ=              0.0000   YZ=              0.0000

 2-0=-302.5010452\MP4SDQ=-364.3874149\CCSD=-299.9583515\CCSD(T)=-300.31
 Normal termination of Gaussian 16 at Sun Jan 15 06:53:15 2023.
