 Gaussian 16, Revision A.03,
 Gaussian 16:  ES64L-G16RevA.03 25-Dec-2016

 ---------------------------------------------------------------
 #p ROCCSD(T)/cc-pVTZ Guess=Read SCF=(VeryTight,CDIIS,VShift=10)
 ---------------------------------------------------------------

 --------
 O2_O2_67
 --------
 Symbolic Z-matrix:
 Charge =  0 Multiplicity = 1

                         Standard orientation:
 ---------------------------------------------------------------------
 Center     Atomic      Atomic             Coordinates (Angstroms)
 Number     Number       Type             X           Y           Z
 ---------------------------------------------------------------------
      1          8           0        0.000000    0.000000    1.741201
      2          8           0        0.000000    0.000000    3.093581
      3          8           0        0.000000    0.000000   -3.093581
      4          8           0        0.000000    0.000000   -1.741201
 ---------------------------------------------------------------------

 SCF Done:  E(ROHF) =  -298.706828355     A.U. after    7 cycles
 E2 =    -0.2430581628D+01 EUMP2 =    -0.30113740998369D+03
 CCSD(T)
 CCSD(T)= -0.30025625158D+03

 The electronic state is 1-SGG.
 Alpha  occ. eigenvalues --  -20.80114 -20.80113 -20.77960 -20.77959  -1.56083
 Alpha  occ. eigenvalues --   -1.56039  -1.16456  -1.16163  -0.71314  -0.70827
 Alpha  occ. eigenvalues --   -0.67141  -0.67141  -0.66577  -0.66577  -0.33715
 Alpha  occ. eigenvalues --   -0.33715
 Alpha virt. eigenvalues --   -0.22069  -0.22069   0.23763   0.28068   0.58291
 Alpha virt. eigenvalues --    0.70878   0.70878   0.70963   0.72108   0.72108
 Alpha virt. eigenvalues --    0.73070   0.80518   0.80518   0.83466   0.83466

 Mulliken charges and spin densities:
               1          2
     1  O    0.021411  -0.000000
     2  O   -0.021411  -0.000000
     3  O   -0.021411  -0.000000
     4  O    0.021411  -0.000000
 Sum of Mulliken charges =  -0.00000  -0.00000

 Dipole moment (field-independent basis, Debye):
    X=             -0.0000    Y=              0.0000    Z=             -0.0000  Tot=              0.0000
 Quadrupole moment (field-independent basis, Debye-Ang):
   XX=            -20.7583   YY=            -20.7583   ZZ=            -21.6758
   XY=              0.0000   XZ=              0.0000   YZ=              0.0000

 304464\CCSD=-299.9652504\CCSD(T)=-300.2562516\RMSD=7.613e-09\PG=D*H [C
 Normal termination of Gaussian 16 at Sat Jan 14 21:14:58 2023.
