 Gaussian 16, Revision A.03,
 Gaussian 16:  ES64L-G16RevA.03 25-Dec-2016

 ----------------------------------------------------------------------
 #p ROCCSD(T,MaxCyc=350)/cc-pVTZ Guess=Read SCF=(VeryTight,MaxCycle=250
 0,CDIIS,VShift=10)
 ----------------------------------------------------------------------

 ---------
 O2_O2_211
 ---------
 Symbolic Z-matrix:
 Charge =  0 Multiplicity = 1

                         Standard orientation:
 ---------------------------------------------------------------------
 Center     Atomic      Atomic             Coordinates (Angstroms)
 Number     Number       Type             X           Y           Z
 ---------------------------------------------------------------------
      1          8           0        0.000000    0.000000    3.780037
      2          8           0        0.000000    0.000000    5.132417
      3          8           0        0.000000    0.000000   -5.132417
      4          8           0        0.000000    0.000000   -3.780037
 ---------------------------------------------------------------------

 SCF Done:  E(ROHF) =  -298.649029127     A.U. after    6 cycles
 E2 =    -0.4166219571D+01 EUMP2 =    -0.30281524869774D+03
 CCSD(T)
 CCSD(T)= -0.30031889854D+03

 The electronic state is 1-SGG.
 Alpha  occ. eigenvalues --  -20.79093 -20.79093 -20.78537 -20.78537  -1.55880
 Alpha  occ. eigenvalues --   -1.55878  -1.16161  -1.16141  -0.70899  -0.70898
 Alpha  occ. eigenvalues --   -0.66734  -0.66734  -0.66659  -0.66659  -0.30776
 Alpha  occ. eigenvalues --   -0.30776
 Alpha virt. eigenvalues --   -0.24761  -0.24761   0.26269   0.26270   0.67734
 Alpha virt. eigenvalues --    0.67738   0.71684   0.71684   0.71685   0.71685
 Alpha virt. eigenvalues --    0.75341   0.75342   0.81962   0.81962   0.81962

 Mulliken charges and spin densities:
               1          2
     1  O    0.006192  -0.000000
     2  O   -0.006192  -0.000000
     3  O   -0.006192  -0.000000
     4  O    0.006192  -0.000000
 Sum of Mulliken charges =  -0.00000  -0.00000

 Dipole moment (field-independent basis, Debye):
    X=             -0.0000    Y=              0.0000    Z=              0.0000  Tot=              0.0000
 Quadrupole moment (field-independent basis, Debye-Ang):
   XX=            -20.7394   YY=            -20.7394   ZZ=            -21.2269
   XY=              0.0000   XZ=              0.0000   YZ=              0.0000

 2-0=-302.8152487\MP4SDQ=-394.4192767\CCSD=-299.9578264\CCSD(T)=-300.31
 Normal termination of Gaussian 16 at Sun Jan 15 08:13:05 2023.
