 Gaussian 16, Revision A.03,
 Gaussian 16:  ES64L-G16RevA.03 25-Dec-2016

 ---------------------------------------------------------------
 #p ROCCSD(T)/cc-pVTZ Guess=Read SCF=(VeryTight,CDIIS,VShift=10)
 ---------------------------------------------------------------

 --------
 O2_O2_31
 --------
 Symbolic Z-matrix:
 Charge =  0 Multiplicity = 1

                         Standard orientation:
 ---------------------------------------------------------------------
 Center     Atomic      Atomic             Coordinates (Angstroms)
 Number     Number       Type             X           Y           Z
 ---------------------------------------------------------------------
      1          8           0        0.000000    0.000000    1.231492
      2          8           0        0.000000    0.000000    2.583872
      3          8           0        0.000000    0.000000   -2.583872
      4          8           0        0.000000    0.000000   -1.231492
 ---------------------------------------------------------------------

 SCF Done:  E(ROHF) =  -298.762062446     A.U. after    8 cycles
 E2 =    -0.1933598536D+01 EUMP2 =    -0.30069566098149D+03
 CCSD(T)
 CCSD(T)= -0.30020714578D+03

 The electronic state is 1-SGG.
 Alpha  occ. eigenvalues --  -20.82142 -20.82138 -20.77368 -20.77367  -1.56845
 Alpha  occ. eigenvalues --   -1.56415  -1.17944  -1.15696  -0.73547  -0.69541
 Alpha  occ. eigenvalues --   -0.68163  -0.68163  -0.66476  -0.66476  -0.36380
 Alpha  occ. eigenvalues --   -0.36380
 Alpha virt. eigenvalues --   -0.20000  -0.20000   0.23621   0.30237   0.67631
 Alpha virt. eigenvalues --    0.67631   0.68728   0.71405   0.71792   0.73093
 Alpha virt. eigenvalues --    0.73093   0.77989   0.77989   0.87576   0.88443

 Mulliken charges and spin densities:
               1          2
     1  O    0.045045  -0.000000
     2  O   -0.045045  -0.000000
     3  O   -0.045045  -0.000000
     4  O    0.045045  -0.000000
 Sum of Mulliken charges =  -0.00000  -0.00000

 Dipole moment (field-independent basis, Debye):
    X=             -0.0000    Y=             -0.0000    Z=              0.0000  Tot=              0.0000
 Quadrupole moment (field-independent basis, Debye-Ang):
   XX=            -20.8361   YY=            -20.8361   ZZ=            -21.9269
   XY=              0.0000   XZ=              0.0000   YZ=              0.0000

 .3680625\CCSD=-299.9795221\CCSD(T)=-300.2071458\RMSD=3.039e-09\PG=D*H
 Normal termination of Gaussian 16 at Sat Jan 14 20:21:12 2023.
