 Gaussian 16, Revision A.03,
 Gaussian 16:  ES64L-G16RevA.03 25-Dec-2016

 ---------------------------------------------------------------
 #p ROCCSD(T)/cc-pVTZ Guess=Read SCF=(VeryTight,CDIIS,VShift=10)
 ---------------------------------------------------------------

 ---------
 O2_O2_100
 ---------
 Symbolic Z-matrix:
 Charge =  0 Multiplicity = 1

                         Standard orientation:
 ---------------------------------------------------------------------
 Center     Atomic      Atomic             Coordinates (Angstroms)
 Number     Number       Type             X           Y           Z
 ---------------------------------------------------------------------
      1          8           0        0.000000    0.000000    2.208433
      2          8           0        0.000000    0.000000    3.560814
      3          8           0        0.000000    0.000000   -3.560814
      4          8           0        0.000000    0.000000   -2.208433
 ---------------------------------------------------------------------

 SCF Done:  E(ROHF) =  -298.683951066     A.U. after    7 cycles
 E2 =    -0.2842744150D+01 EUMP2 =    -0.30152669521592D+03
 CCSD(T)
 CCSD(T)= -0.30027995443D+03

 The electronic state is 1-SGG.
 Alpha  occ. eigenvalues --  -20.79549 -20.79548 -20.78178 -20.78177  -1.55931
 Alpha  occ. eigenvalues --   -1.55920  -1.16240  -1.16145  -0.70978  -0.70911
 Alpha  occ. eigenvalues --   -0.66890  -0.66890  -0.66593  -0.66593  -0.32550
 Alpha  occ. eigenvalues --   -0.32550
 Alpha virt. eigenvalues --   -0.23055  -0.23055   0.25641   0.26750   0.65191
 Alpha virt. eigenvalues --    0.69572   0.71588   0.71588   0.71703   0.71703
 Alpha virt. eigenvalues --    0.74440   0.76915   0.81786   0.81786   0.82082

 Mulliken charges and spin densities:
               1          2
     1  O    0.014984   0.000000
     2  O   -0.014984   0.000000
     3  O   -0.014984   0.000000
     4  O    0.014984   0.000000
 Sum of Mulliken charges =  -0.00000   0.00000

 Dipole moment (field-independent basis, Debye):
    X=             -0.0000    Y=              0.0000    Z=             -0.0000  Tot=              0.0000
 Quadrupole moment (field-independent basis, Debye-Ang):
   XX=            -20.7414   YY=            -20.7414   ZZ=            -21.5609
   XY=              0.0000   XZ=              0.0000   YZ=              0.0000

 312.002539\CCSD=-299.9615378\CCSD(T)=-300.2799544\RMSD=2.519e-09\PG=D*
 Normal termination of Gaussian 16 at Sat Jan 14 22:06:13 2023.
