 Gaussian 16, Revision A.03,
 Gaussian 16:  ES64L-G16RevA.03 25-Dec-2016

 ----------------------------------------------------------------------
 #p ROCCSD(T,MaxCyc=350)/cc-pVTZ Guess=Read SCF=(VeryTight,MaxCycle=250
 0,CDIIS,VShift=10)
 ----------------------------------------------------------------------

 ---------
 O2_O2_186
 ---------
 Symbolic Z-matrix:
 Charge =  0 Multiplicity = 1

                         Standard orientation:
 ---------------------------------------------------------------------
 Center     Atomic      Atomic             Coordinates (Angstroms)
 Number     Number       Type             X           Y           Z
 ---------------------------------------------------------------------
      1          8           0        0.000000    0.000000    3.426072
      2          8           0        0.000000    0.000000    4.778452
      3          8           0        0.000000    0.000000   -4.778452
      4          8           0        0.000000    0.000000   -3.426072
 ---------------------------------------------------------------------

 SCF Done:  E(ROHF) =  -298.654379357     A.U. after    6 cycles
 E2 =    -0.3869920730D+01 EUMP2 =    -0.30252430008685D+03
 CCSD(T)
 CCSD(T)= -0.30031267183D+03

 The electronic state is 1-SGG.
 Alpha  occ. eigenvalues --  -20.79146 -20.79146 -20.78490 -20.78490  -1.55883
 Alpha  occ. eigenvalues --   -1.55881  -1.16167  -1.16141  -0.70902  -0.70901
 Alpha  occ. eigenvalues --   -0.66748  -0.66748  -0.66651  -0.66651  -0.31046
 Alpha  occ. eigenvalues --   -0.31046
 Alpha virt. eigenvalues --   -0.24496  -0.24496   0.26267   0.26267   0.67729
 Alpha virt. eigenvalues --    0.67735   0.71681   0.71681   0.71682   0.71682
 Alpha virt. eigenvalues --    0.75339   0.75341   0.81960   0.81960   0.81960

 Mulliken charges and spin densities:
               1          2
     1  O    0.007323   0.000000
     2  O   -0.007323   0.000000
     3  O   -0.007323   0.000000
     4  O    0.007323   0.000000
 Sum of Mulliken charges =   0.00000   0.00000

 Dipole moment (field-independent basis, Debye):
    X=             -0.0000    Y=              0.0000    Z=             -0.0000  Tot=              0.0000
 Quadrupole moment (field-independent basis, Debye-Ang):
   XX=            -20.7394   YY=            -20.7394   ZZ=            -21.2811
   XY=              0.0000   XZ=              0.0000   YZ=              0.0000

 -0=-302.5243001\MP4SDQ=-366.3574637\CCSD=-299.9583019\CCSD(T)=-300.312
 Normal termination of Gaussian 16 at Sun Jan 15 06:57:17 2023.
