 Gaussian 16, Revision A.03,
 Gaussian 16:  ES64L-G16RevA.03 25-Dec-2016

 ----------------------------------------------------------------------
 #p ROCCSD(T,MaxCyc=250)/cc-pVTZ Guess=Read SCF=(VeryTight,MaxCycle=250
 0,CDIIS,VShift=10)
 ----------------------------------------------------------------------

 ---------
 O2_O2_153
 ---------
 Symbolic Z-matrix:
 Charge =  0 Multiplicity = 1

                         Standard orientation:
 ---------------------------------------------------------------------
 Center     Atomic      Atomic             Coordinates (Angstroms)
 Number     Number       Type             X           Y           Z
 ---------------------------------------------------------------------
      1          8           0        0.000000    0.000000    2.958839
      2          8           0        0.000000    0.000000    4.311219
      3          8           0        0.000000    0.000000   -4.311219
      4          8           0        0.000000    0.000000   -2.958839
 ---------------------------------------------------------------------

 SCF Done:  E(ROHF) =  -298.663132222     A.U. after    6 cycles
 E2 =    -0.3477937310D+01 EUMP2 =    -0.30214106953204D+03
 CCSD(T)
 CCSD(T)= -0.30030271527D+03

 The electronic state is 1-SGG.
 Alpha  occ. eigenvalues --  -20.79244 -20.79244 -20.78404 -20.78404  -1.55891
 Alpha  occ. eigenvalues --   -1.55887  -1.16179  -1.16141  -0.70910  -0.70906
 Alpha  occ. eigenvalues --   -0.66777  -0.66777  -0.66636  -0.66636  -0.31489
 Alpha  occ. eigenvalues --   -0.31489
 Alpha virt. eigenvalues --   -0.24063  -0.24063   0.26253   0.26268   0.67693
 Alpha virt. eigenvalues --    0.67754   0.71675   0.71675   0.71676   0.71676
 Alpha virt. eigenvalues --    0.75324   0.75347   0.81954   0.81954   0.81956

 Mulliken charges and spin densities:
               1          2
     1  O    0.009360   0.000000
     2  O   -0.009360   0.000000
     3  O   -0.009360   0.000000
     4  O    0.009360   0.000000
 Sum of Mulliken charges =  -0.00000   0.00000

 Dipole moment (field-independent basis, Debye):
    X=             -0.0000    Y=              0.0000    Z=             -0.0000  Tot=              0.0000
 Quadrupole moment (field-independent basis, Debye-Ang):
   XX=            -20.7394   YY=            -20.7394   ZZ=            -21.3691
   XY=              0.0000   XZ=              0.0000   YZ=              0.0000

 2-0=-302.1410695\MP4SDQ=-338.5877838\CCSD=-299.9591542\CCSD(T)=-300.30
 Normal termination of Gaussian 16 at Sun Jan 15 04:28:57 2023.
