 Gaussian 16, Revision A.03,
 Gaussian 16:  ES64L-G16RevA.03 25-Dec-2016

 ----------------------------------------------------------------------
 #p ROCCSD(T,MaxCyc=350)/cc-pVTZ Guess=Read SCF=(VeryTight,MaxCycle=250
 0,CDIIS,VShift=10)
 ----------------------------------------------------------------------

 ---------
 O2_O2_201
 ---------
 Symbolic Z-matrix:
 Charge =  0 Multiplicity = 1

                         Standard orientation:
 ---------------------------------------------------------------------
 Center     Atomic      Atomic             Coordinates (Angstroms)
 Number     Number       Type             X           Y           Z
 ---------------------------------------------------------------------
      1          8           0        0.000000    0.000000    3.638451
      2          8           0        0.000000    0.000000    4.990831
      3          8           0        0.000000    0.000000   -4.990831
      4          8           0        0.000000    0.000000   -3.638451
 ---------------------------------------------------------------------

 SCF Done:  E(ROHF) =  -298.651059060     A.U. after    6 cycles
 E2 =    -0.4047755683D+01 EUMP2 =    -0.30269881474293D+03
 CCSD(T)
 CCSD(T)= -0.30031653480D+03

 The electronic state is 1-SGG.
 Alpha  occ. eigenvalues --  -20.79113 -20.79112 -20.78520 -20.78520  -1.55881
 Alpha  occ. eigenvalues --   -1.55879  -1.16163  -1.16141  -0.70900  -0.70899
 Alpha  occ. eigenvalues --   -0.66739  -0.66739  -0.66656  -0.66656  -0.30878
 Alpha  occ. eigenvalues --   -0.30878
 Alpha virt. eigenvalues --   -0.24660  -0.24660   0.26268   0.26269   0.67732
 Alpha virt. eigenvalues --    0.67737   0.71683   0.71683   0.71684   0.71684
 Alpha virt. eigenvalues --    0.75341   0.75342   0.81961   0.81961   0.81962

 Mulliken charges and spin densities:
               1          2
     1  O    0.006611   0.000000
     2  O   -0.006611   0.000000
     3  O   -0.006611   0.000000
     4  O    0.006611   0.000000
 Sum of Mulliken charges =  -0.00000   0.00000

 Dipole moment (field-independent basis, Debye):
    X=             -0.0000    Y=             -0.0000    Z=             -0.0000  Tot=              0.0000
 Quadrupole moment (field-independent basis, Debye-Ang):
   XX=            -20.7394   YY=            -20.7394   ZZ=            -21.2475
   XY=              0.0000   XZ=              0.0000   YZ=              0.0000

 -0=-302.6988147\MP4SDQ=-382.4107732\CCSD=-299.9580085\CCSD(T)=-300.316
 Normal termination of Gaussian 16 at Sun Jan 15 07:41:52 2023.
