 Gaussian 16, Revision A.03,
 Gaussian 16:  ES64L-G16RevA.03 25-Dec-2016

 ----------------------------------------------------------------------
 #p ROCCSD(T,MaxCyc=250)/cc-pVTZ Guess=Read SCF=(VeryTight,MaxCycle=250
 0,CDIIS,VShift=10)
 ----------------------------------------------------------------------

 ---------
 O2_O2_148
 ---------
 Symbolic Z-matrix:
 Charge =  0 Multiplicity = 1

                         Standard orientation:
 ---------------------------------------------------------------------
 Center     Atomic      Atomic             Coordinates (Angstroms)
 Number     Number       Type             X           Y           Z
 ---------------------------------------------------------------------
      1          8           0        0.000000    0.000000    2.888046
      2          8           0        0.000000    0.000000    4.240426
      3          8           0        0.000000    0.000000   -4.240426
      4          8           0        0.000000    0.000000   -2.888046
 ---------------------------------------------------------------------

 SCF Done:  E(ROHF) =  -298.664672616     A.U. after    6 cycles
 E2 =    -0.3418426711D+01 EUMP2 =    -0.30208309932671D+03
 CCSD(T)
 CCSD(T)= -0.30030098674D+03

 The electronic state is 1-SGG.
 Alpha  occ. eigenvalues --  -20.79263 -20.79262 -20.78388 -20.78388  -1.55892
 Alpha  occ. eigenvalues --   -1.55889  -1.16182  -1.16141  -0.70912  -0.70907
 Alpha  occ. eigenvalues --   -0.66783  -0.66783  -0.66633  -0.66633  -0.31567
 Alpha  occ. eigenvalues --   -0.31567
 Alpha virt. eigenvalues --   -0.23987  -0.23987   0.26247   0.26272   0.67673
 Alpha virt. eigenvalues --    0.67770   0.71673   0.71673   0.71675   0.71675
 Alpha virt. eigenvalues --    0.75315   0.75353   0.81953   0.81953   0.81956

 Mulliken charges and spin densities:
               1          2
     1  O    0.009742   0.000000
     2  O   -0.009742   0.000000
     3  O   -0.009742   0.000000
     4  O    0.009742   0.000000
 Sum of Mulliken charges =   0.00000   0.00000

 Dipole moment (field-independent basis, Debye):
    X=             -0.0000    Y=              0.0000    Z=              0.0000  Tot=              0.0000
 Quadrupole moment (field-independent basis, Debye-Ang):
   XX=            -20.7394   YY=            -20.7394   ZZ=            -21.3844
   XY=              0.0000   XZ=              0.0000   YZ=              0.0000

 2-0=-302.0830993\MP4SDQ=-335.2053225\CCSD=-299.9593111\CCSD(T)=-300.30
 Normal termination of Gaussian 16 at Sun Jan 15 04:21:06 2023.
