 Gaussian 16, Revision A.03,
 Gaussian 16:  ES64L-G16RevA.03 25-Dec-2016

 ---------------------------------------------------------------
 #p ROCCSD(T)/cc-pVTZ Guess=Read SCF=(VeryTight,CDIIS,VShift=10)
 ---------------------------------------------------------------

 --------
 O2_O2_60
 --------
 Symbolic Z-matrix:
 Charge =  0 Multiplicity = 1

                         Standard orientation:
 ---------------------------------------------------------------------
 Center     Atomic      Atomic             Coordinates (Angstroms)
 Number     Number       Type             X           Y           Z
 ---------------------------------------------------------------------
      1          8           0        0.000000    0.000000    1.642091
      2          8           0        0.000000    0.000000    2.994471
      3          8           0        0.000000    0.000000   -2.994471
      4          8           0        0.000000    0.000000   -1.642091
 ---------------------------------------------------------------------

 SCF Done:  E(ROHF) =  -298.713959535     A.U. after    7 cycles
 E2 =    -0.2338858942D+01 EUMP2 =    -0.30105281847716D+03
 CCSD(T)
 CCSD(T)= -0.30024916857D+03

 The electronic state is 1-SGG.
 Alpha  occ. eigenvalues --  -20.80342 -20.80340 -20.77899 -20.77899  -1.56156
 Alpha  occ. eigenvalues --   -1.56091  -1.16568  -1.16158  -0.71497  -0.70760
 Alpha  occ. eigenvalues --   -0.67246  -0.67246  -0.66577  -0.66577  -0.34071
 Alpha  occ. eigenvalues --   -0.34071
 Alpha virt. eigenvalues --   -0.21791  -0.21791   0.23482   0.28412   0.58127
 Alpha virt. eigenvalues --    0.70467   0.70467   0.70746   0.72292   0.72292
 Alpha virt. eigenvalues --    0.72866   0.79972   0.79972   0.84239   0.84239

 Mulliken charges and spin densities:
               1          2
     1  O    0.023458   0.000000
     2  O   -0.023458   0.000000
     3  O   -0.023458   0.000000
     4  O    0.023458   0.000000
 Sum of Mulliken charges =   0.00000   0.00000

 Dipole moment (field-independent basis, Debye):
    X=             -0.0000    Y=              0.0000    Z=             -0.0000  Tot=              0.0000
 Quadrupole moment (field-independent basis, Debye-Ang):
   XX=            -20.7671   YY=            -20.7671   ZZ=            -21.6948
   XY=              0.0000   XZ=              0.0000   YZ=              0.0000

 02.8603394\CCSD=-299.9667025\CCSD(T)=-300.2491686\RMSD=9.868e-09\PG=D*
 Normal termination of Gaussian 16 at Sat Jan 14 21:04:01 2023.
