 Gaussian 16, Revision A.03,
 Gaussian 16:  ES64L-G16RevA.03 25-Dec-2016

 ----------------------------------------------------------------------
 #p ROCCSD(T,MaxCyc=250)/cc-pVTZ Guess=Read SCF=(VeryTight,MaxCycle=250
 0,CDIIS,VShift=10)
 ----------------------------------------------------------------------

 ---------
 O2_O2_146
 ---------
 Symbolic Z-matrix:
 Charge =  0 Multiplicity = 1

                         Standard orientation:
 ---------------------------------------------------------------------
 Center     Atomic      Atomic             Coordinates (Angstroms)
 Number     Number       Type             X           Y           Z
 ---------------------------------------------------------------------
      1          8           0        0.000000    0.000000    2.859729
      2          8           0        0.000000    0.000000    4.212109
      3          8           0        0.000000    0.000000   -4.212109
      4          8           0        0.000000    0.000000   -2.859729
 ---------------------------------------------------------------------

 SCF Done:  E(ROHF) =  -298.665307443     A.U. after    6 cycles
 E2 =    -0.3394610895D+01 EUMP2 =    -0.30205991833826D+03
 CCSD(T)
 CCSD(T)= -0.30030027431D+03

 The electronic state is 1-SGG.
 Alpha  occ. eigenvalues --  -20.79270 -20.79270 -20.78382 -20.78382  -1.55893
 Alpha  occ. eigenvalues --   -1.55889  -1.16183  -1.16141  -0.70913  -0.70908
 Alpha  occ. eigenvalues --   -0.66785  -0.66785  -0.66632  -0.66632  -0.31600
 Alpha  occ. eigenvalues --   -0.31600
 Alpha virt. eigenvalues --   -0.23956  -0.23956   0.26244   0.26274   0.67662
 Alpha virt. eigenvalues --    0.67779   0.71673   0.71673   0.71674   0.71674
 Alpha virt. eigenvalues --    0.75311   0.75357   0.81952   0.81952   0.81956

 Mulliken charges and spin densities:
               1          2
     1  O    0.009901  -0.000000
     2  O   -0.009901  -0.000000
     3  O   -0.009901  -0.000000
     4  O    0.009901  -0.000000
 Sum of Mulliken charges =  -0.00000  -0.00000

 Dipole moment (field-independent basis, Debye):
    X=             -0.0000    Y=             -0.0000    Z=             -0.0000  Tot=              0.0000
 Quadrupole moment (field-independent basis, Debye-Ang):
   XX=            -20.7394   YY=            -20.7394   ZZ=            -21.3907
   XY=              0.0000   XZ=              0.0000   YZ=              0.0000

 2-0=-302.0599183\MP4SDQ=-333.9086437\CCSD=-299.9593754\CCSD(T)=-300.30
 Normal termination of Gaussian 16 at Sun Jan 15 04:18:10 2023.
