 Gaussian 16, Revision A.03,
 Gaussian 16:  ES64L-G16RevA.03 25-Dec-2016

 ---------------------------------------------------------------
 #p ROCCSD(T)/cc-pVTZ Guess=Read SCF=(VeryTight,CDIIS,VShift=10)
 ---------------------------------------------------------------

 --------
 O2_O2_57
 --------
 Symbolic Z-matrix:
 Charge =  0 Multiplicity = 1

                         Standard orientation:
 ---------------------------------------------------------------------
 Center     Atomic      Atomic             Coordinates (Angstroms)
 Number     Number       Type             X           Y           Z
 ---------------------------------------------------------------------
      1          8           0        0.000000    0.000000    1.599615
      2          8           0        0.000000    0.000000    2.951995
      3          8           0        0.000000    0.000000   -2.951995
      4          8           0        0.000000    0.000000   -1.599615
 ---------------------------------------------------------------------

 SCF Done:  E(ROHF) =  -298.717406316     A.U. after    8 cycles
 E2 =    -0.2298887613D+01 EUMP2 =    -0.30101629392872D+03
 CCSD(T)
 CCSD(T)= -0.30024581176D+03

 The electronic state is 1-SGG.
 Alpha  occ. eigenvalues --  -20.80458 -20.80456 -20.77869 -20.77869  -1.56194
 Alpha  occ. eigenvalues --   -1.56118  -1.16630  -1.16151  -0.71598  -0.70718
 Alpha  occ. eigenvalues --   -0.67300  -0.67300  -0.66576  -0.66576  -0.34241
 Alpha  occ. eigenvalues --   -0.34241
 Alpha virt. eigenvalues --   -0.21660  -0.21660   0.23412   0.28565   0.58406
 Alpha virt. eigenvalues --    0.70244   0.70244   0.70607   0.72378   0.72378
 Alpha virt. eigenvalues --    0.72781   0.79719   0.79719   0.84649   0.84649

 Mulliken charges and spin densities:
               1          2
     1  O    0.024515   0.000000
     2  O   -0.024515   0.000000
     3  O   -0.024515   0.000000
     4  O    0.024515   0.000000
 Sum of Mulliken charges =  -0.00000   0.00000

 Dipole moment (field-independent basis, Debye):
    X=             -0.0000    Y=              0.0000    Z=             -0.0000  Tot=              0.0000
 Quadrupole moment (field-independent basis, Debye-Ang):
   XX=            -20.7717   YY=            -20.7717   ZZ=            -21.7030
   XY=              0.0000   XZ=              0.0000   YZ=              0.0000

 02.462304\CCSD=-299.9674536\CCSD(T)=-300.2458118\RMSD=1.492e-09\PG=D*H
 Normal termination of Gaussian 16 at Sat Jan 14 20:59:03 2023.
