 Gaussian 16, Revision A.03,
 Gaussian 16:  ES64L-G16RevA.03 25-Dec-2016

 ---------------------------------------------------------------
 #p ROCCSD(T)/cc-pVTZ Guess=Read SCF=(VeryTight,CDIIS,VShift=10)
 ---------------------------------------------------------------

 -------
 O2_O2_1
 -------
 Symbolic Z-matrix:
 Charge =  0 Multiplicity = 1

                         Standard orientation:
 ---------------------------------------------------------------------
 Center     Atomic      Atomic             Coordinates (Angstroms)
 Number     Number       Type             X           Y           Z
 ---------------------------------------------------------------------
      1          8           0        0.000000    0.000000    0.806734
      2          8           0        0.000000    0.000000    2.159114
      3          8           0        0.000000    0.000000   -2.159114
      4          8           0        0.000000    0.000000   -0.806734
 ---------------------------------------------------------------------

 SCF Done:  E(ROHF) =  -298.815893109     A.U. after   10 cycles
 E2 =    -0.1516373110D+01 EUMP2 =    -0.30033226621929D+03
 CCSD(T)
 CCSD(T)= -0.30012660693D+03

 The electronic state is 1-SGG.
 Alpha  occ. eigenvalues --  -20.86188 -20.86170 -20.73972 -20.73971  -1.61162
 Alpha  occ. eigenvalues --   -1.55826  -1.27335  -1.10905  -0.80922  -0.72659
 Alpha  occ. eigenvalues --   -0.72659  -0.64829  -0.64829  -0.59022  -0.41595
 Alpha  occ. eigenvalues --   -0.41595
 Alpha virt. eigenvalues --   -0.14653  -0.14653   0.23119   0.36857   0.65934
 Alpha virt. eigenvalues --    0.67874   0.67874   0.68372   0.74046   0.74046
 Alpha virt. eigenvalues --    0.80160   0.80160   0.83727   0.85061   0.95339

 Mulliken charges and spin densities:
               1          2
     1  O    0.149933   0.000000
     2  O   -0.149933   0.000000
     3  O   -0.149933   0.000000
     4  O    0.149933   0.000000
 Sum of Mulliken charges =  -0.00000   0.00000

 Dipole moment (field-independent basis, Debye):
    X=             -0.0000    Y=             -0.0000    Z=             -0.0000  Tot=              0.0000
 Quadrupole moment (field-independent basis, Debye-Ang):
   XX=            -20.7607   YY=            -20.7607   ZZ=            -24.7280
   XY=              0.0000   XZ=              0.0000   YZ=              0.0000

 0.0326227\CCSD=-299.9763886\CCSD(T)=-300.1266069\RMSD=1.346e-09\PG=D*H
 Normal termination of Gaussian 16 at Sat Jan 14 19:38:10 2023.
