 Gaussian 16, Revision A.03,
 Gaussian 16:  ES64L-G16RevA.03 25-Dec-2016

 ----------------------------------------------------------------------
 #p ROCCSD(T,MaxCyc=350)/cc-pVTZ Guess=Read SCF=(VeryTight,MaxCycle=250
 0,CDIIS,VShift=10)
 ----------------------------------------------------------------------

 ---------
 O2_O2_189
 ---------
 Symbolic Z-matrix:
 Charge =  0 Multiplicity = 1

                         Standard orientation:
 ---------------------------------------------------------------------
 Center     Atomic      Atomic             Coordinates (Angstroms)
 Number     Number       Type             X           Y           Z
 ---------------------------------------------------------------------
      1          8           0        0.000000    0.000000    3.468548
      2          8           0        0.000000    0.000000    4.820928
      3          8           0        0.000000    0.000000   -4.820928
      4          8           0        0.000000    0.000000   -3.468548
 ---------------------------------------------------------------------

 SCF Done:  E(ROHF) =  -298.653686737     A.U. after    6 cycles
 E2 =    -0.3905502328D+01 EUMP2 =    -0.30255918906454D+03
 CCSD(T)
 CCSD(T)= -0.30031348646D+03

 The electronic state is 1-SGG.
 Alpha  occ. eigenvalues --  -20.79139 -20.79139 -20.78496 -20.78496  -1.55882
 Alpha  occ. eigenvalues --   -1.55881  -1.16166  -1.16141  -0.70902  -0.70900
 Alpha  occ. eigenvalues --   -0.66746  -0.66746  -0.66652  -0.66652  -0.31011
 Alpha  occ. eigenvalues --   -0.31011
 Alpha virt. eigenvalues --   -0.24530  -0.24530   0.26267   0.26267   0.67730
 Alpha virt. eigenvalues --    0.67736   0.71682   0.71682   0.71682   0.71682
 Alpha virt. eigenvalues --    0.75339   0.75341   0.81960   0.81960   0.81961

 Mulliken charges and spin densities:
               1          2
     1  O    0.007171   0.000000
     2  O   -0.007171   0.000000
     3  O   -0.007171   0.000000
     4  O    0.007171   0.000000
 Sum of Mulliken charges =  -0.00000   0.00000

 Dipole moment (field-independent basis, Debye):
    X=             -0.0000    Y=              0.0000    Z=             -0.0000  Tot=              0.0000
 Quadrupole moment (field-independent basis, Debye-Ang):
   XX=            -20.7394   YY=            -20.7394   ZZ=            -21.2741
   XY=              0.0000   XZ=              0.0000   YZ=              0.0000

 -0=-302.5591891\MP4SDQ=-369.3863117\CCSD=-299.9582458\CCSD(T)=-300.313
 Normal termination of Gaussian 16 at Sun Jan 15 07:07:53 2023.
