 Gaussian 16, Revision A.03,
 Gaussian 16:  ES64L-G16RevA.03 25-Dec-2016

 ---------------------------------------------------------------
 #p ROCCSD(T)/cc-pVTZ Guess=Read SCF=(VeryTight,CDIIS,VShift=10)
 ---------------------------------------------------------------

 --------
 O2_O2_86
 --------
 Symbolic Z-matrix:
 Charge =  0 Multiplicity = 1

                         Standard orientation:
 ---------------------------------------------------------------------
 Center     Atomic      Atomic             Coordinates (Angstroms)
 Number     Number       Type             X           Y           Z
 ---------------------------------------------------------------------
      1          8           0        0.000000    0.000000    2.010214
      2          8           0        0.000000    0.000000    3.362594
      3          8           0        0.000000    0.000000   -3.362594
      4          8           0        0.000000    0.000000   -2.010214
 ---------------------------------------------------------------------

 SCF Done:  E(ROHF) =  -298.692074940     A.U. after    7 cycles
 E2 =    -0.2670951898D+01 EUMP2 =    -0.30136302683731D+03
 CCSD(T)
 CCSD(T)= -0.30027139516D+03

 The electronic state is 1-SGG.
 Alpha  occ. eigenvalues --  -20.79717 -20.79716 -20.78094 -20.78093  -1.55969
 Alpha  occ. eigenvalues --   -1.55950  -1.16293  -1.16153  -0.71056  -0.70898
 Alpha  occ. eigenvalues --   -0.66962  -0.66962  -0.66582  -0.66582  -0.32966
 Alpha  occ. eigenvalues --   -0.32966
 Alpha virt. eigenvalues --   -0.22687  -0.22687   0.24952   0.27222   0.62238
 Alpha virt. eigenvalues --    0.70649   0.71445   0.71445   0.71792   0.71792
 Alpha virt. eigenvalues --    0.73788   0.80278   0.81491   0.81491   0.82361

 Mulliken charges and spin densities:
               1          2
     1  O    0.017303   0.000000
     2  O   -0.017303   0.000000
     3  O   -0.017303   0.000000
     4  O    0.017303   0.000000
 Sum of Mulliken charges =  -0.00000   0.00000

 Dipole moment (field-independent basis, Debye):
    X=             -0.0000    Y=              0.0000    Z=              0.0000  Tot=              0.0000
 Quadrupole moment (field-independent basis, Debye-Ang):
   XX=            -20.7451   YY=            -20.7451   ZZ=            -21.6144
   XY=              0.0000   XZ=              0.0000   YZ=              0.0000

 07.9210585\CCSD=-299.9626975\CCSD(T)=-300.2713952\RMSD=4.336e-09\PG=D*
 Normal termination of Gaussian 16 at Sat Jan 14 21:42:54 2023.
