 Gaussian 16, Revision A.03,
 Gaussian 16:  ES64L-G16RevA.03 25-Dec-2016

 ----------------------------------------------------------------------
 #p ROCCSD(T,MaxCyc=250)/cc-pVTZ Guess=Read SCF=(VeryTight,MaxCycle=250
 0,CDIIS,VShift=10)
 ----------------------------------------------------------------------

 ---------
 O2_O2_120
 ---------
 Symbolic Z-matrix:
 Charge =  0 Multiplicity = 1

                         Standard orientation:
 ---------------------------------------------------------------------
 Center     Atomic      Atomic             Coordinates (Angstroms)
 Number     Number       Type             X           Y           Z
 ---------------------------------------------------------------------
      1          8           0        0.000000    0.000000    2.491606
      2          8           0        0.000000    0.000000    3.843986
      3          8           0        0.000000    0.000000   -3.843986
      4          8           0        0.000000    0.000000   -2.491606
 ---------------------------------------------------------------------

 SCF Done:  E(ROHF) =  -298.674716019     A.U. after    7 cycles
 E2 =    -0.3084070153D+01 EUMP2 =    -0.30175878617185D+03
 CCSD(T)
 CCSD(T)= -0.30028989429D+03

 The electronic state is 1-SGG.
 Alpha  occ. eigenvalues --  -20.79397 -20.79396 -20.78280 -20.78279  -1.55907
 Alpha  occ. eigenvalues --   -1.55900  -1.16204  -1.16141  -0.70932  -0.70913
 Alpha  occ. eigenvalues --   -0.66830  -0.66830  -0.66612  -0.66612  -0.32078
 Alpha  occ. eigenvalues --   -0.32078
 Alpha virt. eigenvalues --   -0.23495  -0.23495   0.26100   0.26390   0.67125
 Alpha virt. eigenvalues --    0.68249   0.71653   0.71653   0.71672   0.71672
 Alpha virt. eigenvalues --    0.75087   0.75602   0.81921   0.81921   0.81970

 Mulliken charges and spin densities:
               1          2
     1  O    0.012386   0.000000
     2  O   -0.012386   0.000000
     3  O   -0.012386   0.000000
     4  O    0.012386   0.000000
 Sum of Mulliken charges =  -0.00000   0.00000

 Dipole moment (field-independent basis, Debye):
    X=             -0.0000    Y=              0.0000    Z=             -0.0000  Tot=              0.0000
 Quadrupole moment (field-independent basis, Debye-Ang):
   XX=            -20.7397   YY=            -20.7397   ZZ=            -21.4818
   XY=              0.0000   XZ=              0.0000   YZ=              0.0000

 0=-301.7587862\MP4SDQ=-319.7826469\CCSD=-299.9603995\CCSD(T)=-300.2898
 Normal termination of Gaussian 16 at Sun Jan 15 03:36:42 2023.
