 Gaussian 16, Revision A.03,
 Gaussian 16:  ES64L-G16RevA.03 25-Dec-2016

 ----------------------------------------------------------------------
 #p ROCCSD(T,MaxCyc=250)/cc-pVTZ Guess=Read SCF=(VeryTight,MaxCycle=250
 0,CDIIS,VShift=10)
 ----------------------------------------------------------------------

 ---------
 O2_O2_132
 ---------
 Symbolic Z-matrix:
 Charge =  0 Multiplicity = 1

                         Standard orientation:
 ---------------------------------------------------------------------
 Center     Atomic      Atomic             Coordinates (Angstroms)
 Number     Number       Type             X           Y           Z
 ---------------------------------------------------------------------
      1          8           0        0.000000    0.000000    2.661509
      2          8           0        0.000000    0.000000    4.013889
      3          8           0        0.000000    0.000000   -4.013889
      4          8           0        0.000000    0.000000   -2.661509
 ---------------------------------------------------------------------

 SCF Done:  E(ROHF) =  -298.670082883     A.U. after    6 cycles
 E2 =    -0.3227660251D+01 EUMP2 =    -0.30189774313447D+03
 CCSD(T)
 CCSD(T)= -0.30029496545D+03

 The electronic state is 1-SGG.
 Alpha  occ. eigenvalues --  -20.79332 -20.79331 -20.78331 -20.78331  -1.55899
 Alpha  occ. eigenvalues --   -1.55894  -1.16192  -1.16141  -0.70920  -0.70911
 Alpha  occ. eigenvalues --   -0.66806  -0.66806  -0.66622  -0.66622  -0.31842
 Alpha  occ. eigenvalues --   -0.31842
 Alpha virt. eigenvalues --   -0.23721  -0.23721   0.26199   0.26308   0.67503
 Alpha virt. eigenvalues --    0.67920   0.71666   0.71666   0.71671   0.71671
 Alpha virt. eigenvalues --    0.75244   0.75421   0.81942   0.81942   0.81958

 Mulliken charges and spin densities:
               1          2
     1  O    0.011135   0.000000
     2  O   -0.011135   0.000000
     3  O   -0.011135   0.000000
     4  O    0.011135   0.000000
 Sum of Mulliken charges =  -0.00000   0.00000

 Dipole moment (field-independent basis, Debye):
    X=             -0.0000    Y=             -0.0000    Z=             -0.0000  Tot=              0.0000
 Quadrupole moment (field-independent basis, Debye-Ang):
   XX=            -20.7395   YY=            -20.7395   ZZ=            -21.4376
   XY=              0.0000   XZ=              0.0000   YZ=              0.0000

 2-0=-301.8977431\MP4SDQ=-325.6942627\CCSD=-299.9598781\CCSD(T)=-300.29
 Normal termination of Gaussian 16 at Sun Jan 15 03:55:07 2023.
