 Gaussian 16, Revision A.03,
 Gaussian 16:  ES64L-G16RevA.03 25-Dec-2016

 ---------------------------------------------------------------
 #p ROCCSD(T)/cc-pVTZ Guess=Read SCF=(VeryTight,CDIIS,VShift=10)
 ---------------------------------------------------------------

 --------
 O2_O2_77
 --------
 Symbolic Z-matrix:
 Charge =  0 Multiplicity = 1

                         Standard orientation:
 ---------------------------------------------------------------------
 Center     Atomic      Atomic             Coordinates (Angstroms)
 Number     Number       Type             X           Y           Z
 ---------------------------------------------------------------------
      1          8           0        0.000000    0.000000    1.882787
      2          8           0        0.000000    0.000000    3.235167
      3          8           0        0.000000    0.000000   -3.235167
      4          8           0        0.000000    0.000000   -1.882787
 ---------------------------------------------------------------------

 SCF Done:  E(ROHF) =  -298.698384911     A.U. after    7 cycles
 E2 =    -0.2558411432D+01 EUMP2 =    -0.30125679634281D+03
 CCSD(T)
 CCSD(T)= -0.30026485068D+03

 The electronic state is 1-SGG.
 Alpha  occ. eigenvalues --  -20.79873 -20.79872 -20.78034 -20.78034  -1.56011
 Alpha  occ. eigenvalues --   -1.55984  -1.16351  -1.16159  -0.71147  -0.70877
 Alpha  occ. eigenvalues --   -0.67032  -0.67032  -0.66578  -0.66578  -0.33288
 Alpha  occ. eigenvalues --   -0.33288
 Alpha virt. eigenvalues --   -0.22415  -0.22415   0.24369   0.27603   0.60017
 Alpha virt. eigenvalues --    0.70978   0.71254   0.71254   0.71908   0.71908
 Alpha virt. eigenvalues --    0.73411   0.81129   0.81129   0.82739   0.82739

 Mulliken charges and spin densities:
               1          2
     1  O    0.019076  -0.000000
     2  O   -0.019076  -0.000000
     3  O   -0.019076  -0.000000
     4  O    0.019076  -0.000000
 Sum of Mulliken charges =  -0.00000  -0.00000

 Dipole moment (field-independent basis, Debye):
    X=             -0.0000    Y=             -0.0000    Z=              0.0000  Tot=              0.0000
 Quadrupole moment (field-independent basis, Debye-Ang):
   XX=            -20.7498   YY=            -20.7498   ZZ=            -21.6455
   XY=              0.0000   XZ=              0.0000   YZ=              0.0000

 5.8230133\CCSD=-299.9637163\CCSD(T)=-300.2648507\RMSD=6.772e-09\PG=D*H
 Normal termination of Gaussian 16 at Sat Jan 14 21:29:45 2023.
