 Gaussian 16, Revision A.03,
 Gaussian 16:  ES64L-G16RevA.03 25-Dec-2016

 ---------------------------------------------------------------
 #p ROCCSD(T)/cc-pVTZ Guess=Read SCF=(VeryTight,CDIIS,VShift=10)
 ---------------------------------------------------------------

 --------
 O2_O2_21
 --------
 Symbolic Z-matrix:
 Charge =  0 Multiplicity = 1

                         Standard orientation:
 ---------------------------------------------------------------------
 Center     Atomic      Atomic             Coordinates (Angstroms)
 Number     Number       Type             X           Y           Z
 ---------------------------------------------------------------------
      1          8           0        0.000000    0.000000    1.089906
      2          8           0        0.000000    0.000000    2.442286
      3          8           0        0.000000    0.000000   -2.442286
      4          8           0        0.000000    0.000000   -1.089906
 ---------------------------------------------------------------------

 SCF Done:  E(ROHF) =  -298.787795615     A.U. after    8 cycles
 E2 =    -0.1785939758D+01 EUMP2 =    -0.30057373537280D+03
 CCSD(T)
 CCSD(T)= -0.30018819603D+03

 The electronic state is 1-SGG.
 Alpha  occ. eigenvalues --  -20.83196 -20.83190 -20.76853 -20.76853  -1.57398
 Alpha  occ. eigenvalues --   -1.56471  -1.19330  -1.14997  -0.75213  -0.68851
 Alpha  occ. eigenvalues --   -0.68851  -0.68109  -0.66270  -0.66270  -0.37690
 Alpha  occ. eigenvalues --   -0.37690
 Alpha virt. eigenvalues --   -0.18877  -0.18877   0.23732   0.31322   0.67188
 Alpha virt. eigenvalues --    0.67188   0.67961   0.70795   0.73303   0.73303
 Alpha virt. eigenvalues --    0.77977   0.77977   0.81038   0.86984   0.88543

 Mulliken charges and spin densities:
               1          2
     1  O    0.064777   0.000000
     2  O   -0.064777   0.000000
     3  O   -0.064777   0.000000
     4  O    0.064777   0.000000
 Sum of Mulliken charges =  -0.00000   0.00000

 Dipole moment (field-independent basis, Debye):
    X=             -0.0000    Y=             -0.0000    Z=              0.0000  Tot=              0.0000
 Quadrupole moment (field-independent basis, Debye-Ang):
   XX=            -20.8613   YY=            -20.8613   ZZ=            -22.2956
   XY=              0.0000   XZ=              0.0000   YZ=              0.0000

 00.0983905\CCSD=-299.9873227\CCSD(T)=-300.188196\RMSD=8.428e-09\PG=D*H
 Normal termination of Gaussian 16 at Sat Jan 14 20:07:06 2023.
