 Gaussian 16, Revision A.03,
 Gaussian 16:  ES64L-G16RevA.03 25-Dec-2016

 ----------------------------------------------------------------------
 #p ROCCSD(T,MaxCyc=250)/cc-pVTZ Guess=Read SCF=(VeryTight,MaxCycle=250
 0,CDIIS,VShift=10)
 ----------------------------------------------------------------------

 ---------
 O2_O2_111
 ---------
 Symbolic Z-matrix:
 Charge =  0 Multiplicity = 1

                         Standard orientation:
 ---------------------------------------------------------------------
 Center     Atomic      Atomic             Coordinates (Angstroms)
 Number     Number       Type             X           Y           Z
 ---------------------------------------------------------------------
      1          8           0        0.000000    0.000000    2.364178
      2          8           0        0.000000    0.000000    3.716558
      3          8           0        0.000000    0.000000   -3.716558
      4          8           0        0.000000    0.000000   -2.364178
 ---------------------------------------------------------------------

 SCF Done:  E(ROHF) =  -298.678598884     A.U. after    7 cycles
 E2 =    -0.2975886033D+01 EUMP2 =    -0.30165448491755D+03
 CCSD(T)
 CCSD(T)= -0.30028568611D+03

 The electronic state is 1-SGG.
 Alpha  occ. eigenvalues --  -20.79456 -20.79456 -20.78236 -20.78236  -1.55915
 Alpha  occ. eigenvalues --   -1.55907  -1.16217  -1.16142  -0.70947  -0.70913
 Alpha  occ. eigenvalues --   -0.66853  -0.66853  -0.66604  -0.66604  -0.32277
 Alpha  occ. eigenvalues --   -0.32277
 Alpha virt. eigenvalues --   -0.23308  -0.23308   0.25955   0.26509   0.66534
 Alpha virt. eigenvalues --    0.68718   0.71635   0.71635   0.71679   0.71679
 Alpha virt. eigenvalues --    0.74862   0.75936   0.81884   0.81884   0.81998

 Mulliken charges and spin densities:
               1          2
     1  O    0.013466   0.000000
     2  O   -0.013466   0.000000
     3  O   -0.013466   0.000000
     4  O    0.013466   0.000000
 Sum of Mulliken charges =  -0.00000   0.00000

 Dipole moment (field-independent basis, Debye):
    X=             -0.0000    Y=             -0.0000    Z=              0.0000  Tot=              0.0000
 Quadrupole moment (field-independent basis, Debye-Ang):
   XX=            -20.7402   YY=            -20.7402   ZZ=            -21.5170
   XY=              0.0000   XZ=              0.0000   YZ=              0.0000

 2-0=-301.6544849\MP4SDQ=-315.9781261\CCSD=-299.9608583\CCSD(T)=-300.28
 Normal termination of Gaussian 16 at Sun Jan 15 03:23:02 2023.
