 Gaussian 16, Revision A.03,
 Gaussian 16:  ES64L-G16RevA.03 25-Dec-2016

 ---------------------------------------------------------------
 #p ROCCSD(T)/cc-pVTZ Guess=Read SCF=(VeryTight,CDIIS,VShift=10)
 ---------------------------------------------------------------

 --------
 O2_O2_19
 --------
 Symbolic Z-matrix:
 Charge =  0 Multiplicity = 1

                         Standard orientation:
 ---------------------------------------------------------------------
 Center     Atomic      Atomic             Coordinates (Angstroms)
 Number     Number       Type             X           Y           Z
 ---------------------------------------------------------------------
      1          8           0        0.000000    0.000000    1.061589
      2          8           0        0.000000    0.000000    2.413969
      3          8           0        0.000000    0.000000   -2.413969
      4          8           0        0.000000    0.000000   -1.061589
 ---------------------------------------------------------------------

 SCF Done:  E(ROHF) =  -298.793262166     A.U. after    9 cycles
 E2 =    -0.1756415120D+01 EUMP2 =    -0.30054967728580D+03
 CCSD(T)
 CCSD(T)= -0.30018418672D+03

 The electronic state is 1-SGG.
 Alpha  occ. eigenvalues --  -20.83435 -20.83429 -20.76702 -20.76702  -1.57552
 Alpha  occ. eigenvalues --   -1.56465  -1.19734  -1.14782  -0.75641  -0.69035
 Alpha  occ. eigenvalues --   -0.69035  -0.67679  -0.66202  -0.66202  -0.37999
 Alpha  occ. eigenvalues --   -0.37999
 Alpha virt. eigenvalues --   -0.18593  -0.18593   0.23743   0.31609   0.67200
 Alpha virt. eigenvalues --    0.67200   0.67798   0.70592   0.73347   0.73347
 Alpha virt. eigenvalues --    0.78044   0.78044   0.82752   0.86840   0.88819

 Mulliken charges and spin densities:
               1          2
     1  O    0.070034   0.000000
     2  O   -0.070034   0.000000
     3  O   -0.070034   0.000000
     4  O    0.070034   0.000000
 Sum of Mulliken charges =  -0.00000   0.00000

 Dipole moment (field-independent basis, Debye):
    X=             -0.0000    Y=              0.0000    Z=             -0.0000  Tot=              0.0000
 Quadrupole moment (field-independent basis, Debye-Ang):
   XX=            -20.8636   YY=            -20.8636   ZZ=            -22.4138
   XY=              0.0000   XZ=              0.0000   YZ=              0.0000

 00.0703022\CCSD=-299.9888739\CCSD(T)=-300.1841867\RMSD=3.200e-09\PG=D*
 Normal termination of Gaussian 16 at Sat Jan 14 20:04:22 2023.
