 Gaussian 16, Revision A.03,
 Gaussian 16:  ES64L-G16RevA.03 25-Dec-2016

 ----------------------------------------------------------------------
 #p ROCCSD(T,MaxCyc=350)/cc-pVTZ Guess=Read SCF=(VeryTight,MaxCycle=250
 0,CDIIS,VShift=10)
 ----------------------------------------------------------------------

 ---------
 O2_O2_180
 ---------
 Symbolic Z-matrix:
 Charge =  0 Multiplicity = 1

                         Standard orientation:
 ---------------------------------------------------------------------
 Center     Atomic      Atomic             Coordinates (Angstroms)
 Number     Number       Type             X           Y           Z
 ---------------------------------------------------------------------
      1          8           0        0.000000    0.000000    3.341120
      2          8           0        0.000000    0.000000    4.693500
      3          8           0        0.000000    0.000000   -4.693500
      4          8           0        0.000000    0.000000   -3.341120
 ---------------------------------------------------------------------

 SCF Done:  E(ROHF) =  -298.655810826     A.U. after    6 cycles
 E2 =    -0.3798734500D+01 EUMP2 =    -0.30245454532588D+03
 CCSD(T)
 CCSD(T)= -0.30031103345D+03

 The electronic state is 1-SGG.
 Alpha  occ. eigenvalues --  -20.79161 -20.79161 -20.78476 -20.78476  -1.55884
 Alpha  occ. eigenvalues --   -1.55882  -1.16168  -1.16141  -0.70903  -0.70901
 Alpha  occ. eigenvalues --   -0.66752  -0.66752  -0.66649  -0.66649  -0.31118
 Alpha  occ. eigenvalues --   -0.31118
 Alpha virt. eigenvalues --   -0.24425  -0.24425   0.26266   0.26266   0.67727
 Alpha virt. eigenvalues --    0.67735   0.71681   0.71681   0.71681   0.71681
 Alpha virt. eigenvalues --    0.75338   0.75340   0.81959   0.81959   0.81960

 Mulliken charges and spin densities:
               1          2
     1  O    0.007640   0.000000
     2  O   -0.007640   0.000000
     3  O   -0.007640   0.000000
     4  O    0.007640   0.000000
 Sum of Mulliken charges =  -0.00000   0.00000

 Dipole moment (field-independent basis, Debye):
    X=             -0.0000    Y=              0.0000    Z=              0.0000  Tot=              0.0000
 Quadrupole moment (field-independent basis, Debye-Ang):
   XX=            -20.7394   YY=            -20.7394   ZZ=            -21.2956
   XY=              0.0000   XZ=              0.0000   YZ=              0.0000

 0=-302.4545453\MP4SDQ=-360.5635517\CCSD=-299.9584398\CCSD(T)=-300.3110
 Normal termination of Gaussian 16 at Sun Jan 15 06:39:32 2023.
