 Gaussian 16, Revision A.03,
 Gaussian 16:  ES64L-G16RevA.03 25-Dec-2016

 ----------------------------------------------------------------------
 #p ROCCSD(T,MaxCyc=250)/cc-pVTZ Guess=Read SCF=(VeryTight,MaxCycle=250
 0,CDIIS,VShift=10)
 ----------------------------------------------------------------------

 ---------
 O2_O2_155
 ---------
 Symbolic Z-matrix:
 Charge =  0 Multiplicity = 1

                         Standard orientation:
 ---------------------------------------------------------------------
 Center     Atomic      Atomic             Coordinates (Angstroms)
 Number     Number       Type             X           Y           Z
 ---------------------------------------------------------------------
      1          8           0        0.000000    0.000000    2.987156
      2          8           0        0.000000    0.000000    4.339536
      3          8           0        0.000000    0.000000   -4.339536
      4          8           0        0.000000    0.000000   -2.987156
 ---------------------------------------------------------------------

 SCF Done:  E(ROHF) =  -298.662533986     A.U. after    6 cycles
 E2 =    -0.3501730594D+01 EUMP2 =    -0.30216426457989D+03
 CCSD(T)
 CCSD(T)= -0.30030338837D+03

 The electronic state is 1-SGG.
 Alpha  occ. eigenvalues --  -20.79237 -20.79237 -20.78410 -20.78410  -1.55890
 Alpha  occ. eigenvalues --   -1.55887  -1.16178  -1.16141  -0.70909  -0.70906
 Alpha  occ. eigenvalues --   -0.66775  -0.66775  -0.66637  -0.66637  -0.31459
 Alpha  occ. eigenvalues --   -0.31459
 Alpha virt. eigenvalues --   -0.24092  -0.24092   0.26255   0.26267   0.67699
 Alpha virt. eigenvalues --    0.67750   0.71675   0.71675   0.71676   0.71676
 Alpha virt. eigenvalues --    0.75326   0.75345   0.81955   0.81955   0.81956

 Mulliken charges and spin densities:
               1          2
     1  O    0.009214  -0.000000
     2  O   -0.009214  -0.000000
     3  O   -0.009214  -0.000000
     4  O    0.009214  -0.000000
 Sum of Mulliken charges =  -0.00000  -0.00000

 Dipole moment (field-independent basis, Debye):
    X=             -0.0000    Y=             -0.0000    Z=              0.0000  Tot=              0.0000
 Quadrupole moment (field-independent basis, Debye-Ang):
   XX=            -20.7394   YY=            -20.7394   ZZ=            -21.3631
   XY=              0.0000   XZ=              0.0000   YZ=              0.0000

 0=-302.1642646\MP4SDQ=-339.998074\CCSD=-299.9590938\CCSD(T)=-300.30338
 Normal termination of Gaussian 16 at Sun Jan 15 04:31:49 2023.
