 Gaussian 16, Revision A.03,
 Gaussian 16:  ES64L-G16RevA.03 25-Dec-2016

 ----------------------------------------------------------------------
 #p ROCCSD(T,MaxCyc=250)/cc-pVTZ Guess=Read SCF=(VeryTight,MaxCycle=250
 0,CDIIS,VShift=10)
 ----------------------------------------------------------------------

 ---------
 O2_O2_131
 ---------
 Symbolic Z-matrix:
 Charge =  0 Multiplicity = 1

                         Standard orientation:
 ---------------------------------------------------------------------
 Center     Atomic      Atomic             Coordinates (Angstroms)
 Number     Number       Type             X           Y           Z
 ---------------------------------------------------------------------
      1          8           0        0.000000    0.000000    2.647350
      2          8           0        0.000000    0.000000    3.999730
      3          8           0        0.000000    0.000000   -3.999730
      4          8           0        0.000000    0.000000   -2.647350
 ---------------------------------------------------------------------

 SCF Done:  E(ROHF) =  -298.670448278     A.U. after    6 cycles
 E2 =    -0.3215715004D+01 EUMP2 =    -0.30188616328149D+03
 CCSD(T)
 CCSD(T)= -0.30029456955D+03

 The electronic state is 1-SGG.
 Alpha  occ. eigenvalues --  -20.79337 -20.79336 -20.78327 -20.78327  -1.55900
 Alpha  occ. eigenvalues --   -1.55894  -1.16193  -1.16141  -0.70921  -0.70911
 Alpha  occ. eigenvalues --   -0.66808  -0.66808  -0.66621  -0.66621  -0.31861
 Alpha  occ. eigenvalues --   -0.31861
 Alpha virt. eigenvalues --   -0.23703  -0.23703   0.26193   0.26313   0.67483
 Alpha virt. eigenvalues --    0.67938   0.71665   0.71665   0.71671   0.71671
 Alpha virt. eigenvalues --    0.75235   0.75430   0.81941   0.81941   0.81958

 Mulliken charges and spin densities:
               1          2
     1  O    0.011232   0.000000
     2  O   -0.011232   0.000000
     3  O   -0.011232   0.000000
     4  O    0.011232   0.000000
 Sum of Mulliken charges =  -0.00000   0.00000

 Dipole moment (field-independent basis, Debye):
    X=             -0.0000    Y=              0.0000    Z=             -0.0000  Tot=              0.0000
 Quadrupole moment (field-independent basis, Debye-Ang):
   XX=            -20.7395   YY=            -20.7395   ZZ=            -21.4412
   XY=              0.0000   XZ=              0.0000   YZ=              0.0000

 2-0=-301.8861633\MP4SDQ=-325.1631634\CCSD=-299.9599213\CCSD(T)=-300.29
 Normal termination of Gaussian 16 at Sun Jan 15 03:53:53 2023.
