 Gaussian 16, Revision A.03,
 Gaussian 16:  ES64L-G16RevA.03 25-Dec-2016

 ---------------------------------------------------------------
 #p ROCCSD(T)/cc-pVTZ Guess=Read SCF=(VeryTight,CDIIS,VShift=10)
 ---------------------------------------------------------------

 --------
 O2_O2_45
 --------
 Symbolic Z-matrix:
 Charge =  0 Multiplicity = 1

                         Standard orientation:
 ---------------------------------------------------------------------
 Center     Atomic      Atomic             Coordinates (Angstroms)
 Number     Number       Type             X           Y           Z
 ---------------------------------------------------------------------
      1          8           0        0.000000    0.000000    1.429712
      2          8           0        0.000000    0.000000    2.782092
      3          8           0        0.000000    0.000000   -2.782092
      4          8           0        0.000000    0.000000   -1.429712
 ---------------------------------------------------------------------

 SCF Done:  E(ROHF) =  -298.734239654     A.U. after    8 cycles
 E2 =    -0.2134542611D+01 EUMP2 =    -0.30086878226541D+03
 CCSD(T)
 CCSD(T)= -0.30023016319D+03

 The electronic state is 1-SGG.
 Alpha  occ. eigenvalues --  -20.81065 -20.81063 -20.77715 -20.77714  -1.56408
 Alpha  occ. eigenvalues --   -1.56247  -1.17009  -1.16067  -0.72202  -0.70419
 Alpha  occ. eigenvalues --   -0.67592  -0.67592  -0.66564  -0.66564  -0.35055
 Alpha  occ. eigenvalues --   -0.35055
 Alpha virt. eigenvalues --   -0.21039  -0.21039   0.23399   0.29230   0.61968
 Alpha virt. eigenvalues --    0.69088   0.69088   0.69823   0.72406   0.72736
 Alpha virt. eigenvalues --    0.72736   0.78726   0.78726   0.86788   0.86788

 Mulliken charges and spin densities:
               1          2
     1  O    0.030669   0.000000
     2  O   -0.030669   0.000000
     3  O   -0.030669   0.000000
     4  O    0.030669   0.000000
 Sum of Mulliken charges =  -0.00000   0.00000

 Dipole moment (field-independent basis, Debye):
    X=             -0.0000    Y=             -0.0000    Z=              0.0000  Tot=              0.0000
 Quadrupole moment (field-independent basis, Debye-Ang):
   XX=            -20.7961   YY=            -20.7961   ZZ=            -21.7500
   XY=              0.0000   XZ=              0.0000   YZ=              0.0000

 01.2104347\CCSD=-299.9715566\CCSD(T)=-300.2301632\RMSD=2.163e-09\PG=D*
 Normal termination of Gaussian 16 at Sat Jan 14 20:41:50 2023.
