 Gaussian 16, Revision A.03,
 Gaussian 16:  ES64L-G16RevA.03 25-Dec-2016

 ---------------------------------------------------------------
 #p ROCCSD(T)/cc-pVTZ Guess=Read SCF=(VeryTight,CDIIS,VShift=10)
 ---------------------------------------------------------------

 --------
 O2_O2_13
 --------
 Symbolic Z-matrix:
 Charge =  0 Multiplicity = 1

                         Standard orientation:
 ---------------------------------------------------------------------
 Center     Atomic      Atomic             Coordinates (Angstroms)
 Number     Number       Type             X           Y           Z
 ---------------------------------------------------------------------
      1          8           0        0.000000    0.000000    0.976637
      2          8           0        0.000000    0.000000    2.329017
      3          8           0        0.000000    0.000000   -2.329017
      4          8           0        0.000000    0.000000   -0.976637
 ---------------------------------------------------------------------

 SCF Done:  E(ROHF) =  -298.808872980     A.U. after    9 cycles
 E2 =    -0.1669166829D+01 EUMP2 =    -0.30047803980841D+03
 CCSD(T)
 CCSD(T)= -0.30017114814D+03

 The electronic state is 1-SGG.
 Alpha  occ. eigenvalues --  -20.84212 -20.84204 -20.76110 -20.76110  -1.58169
 Alpha  occ. eigenvalues --   -1.56388  -1.21340  -1.13925  -0.77132  -0.69743
 Alpha  occ. eigenvalues --   -0.69743  -0.65941  -0.65918  -0.65918  -0.39036
 Alpha  occ. eigenvalues --   -0.39036
 Alpha virt. eigenvalues --   -0.17587  -0.17587   0.23730   0.32696   0.67269
 Alpha virt. eigenvalues --    0.67414   0.67414   0.69966   0.73503   0.73503
 Alpha virt. eigenvalues --    0.78422   0.78422   0.85283   0.86350   0.91734

 Mulliken charges and spin densities:
               1          2
     1  O    0.088895   0.000000
     2  O   -0.088895   0.000000
     3  O   -0.088895   0.000000
     4  O    0.088895   0.000000
 Sum of Mulliken charges =   0.00000   0.00000

 Dipole moment (field-independent basis, Debye):
    X=             -0.0000    Y=             -0.0000    Z=             -0.0000  Tot=              0.0000
 Quadrupole moment (field-independent basis, Debye-Ang):
   XX=            -20.8599   YY=            -20.8599   ZZ=            -22.8964
   XY=              0.0000   XZ=              0.0000   YZ=              0.0000

 .0248348\CCSD=-299.9923234\CCSD(T)=-300.1711481\RMSD=7.086e-09\PG=D*H
 Normal termination of Gaussian 16 at Sat Jan 14 19:55:05 2023.
