 Gaussian 16, Revision A.03,
 Gaussian 16:  ES64L-G16RevA.03 25-Dec-2016

 ----------------------------------------------------------------------
 #p ROCCSD(T,MaxCyc=350)/cc-pVTZ Guess=Read SCF=(VeryTight,MaxCycle=250
 0,CDIIS,VShift=10)
 ----------------------------------------------------------------------

 ---------
 O2_O2_276
 ---------
 Symbolic Z-matrix:
 Charge =  0 Multiplicity = 1

                         Standard orientation:
 ---------------------------------------------------------------------
 Center     Atomic      Atomic             Coordinates (Angstroms)
 Number     Number       Type             X           Y           Z
 ---------------------------------------------------------------------
      1          8           0        0.000000    0.000000    4.700344
      2          8           0        0.000000    0.000000    6.052724
      3          8           0        0.000000    0.000000   -6.052724
      4          8           0        0.000000    0.000000   -4.700344
 ---------------------------------------------------------------------

 SCF Done:  E(ROHF) =  -298.638526399     A.U. after    6 cycles
 E2 =    -0.4934874513D+01 EUMP2 =    -0.30357340091224D+03
 CCSD(T)
 CCSD(T)= -0.30033134942D+03

 The electronic state is 1-SGG.
 Alpha  occ. eigenvalues --  -20.79002 -20.79002 -20.78620 -20.78620  -1.55875
 Alpha  occ. eigenvalues --   -1.55875  -1.16153  -1.16142  -0.70895  -0.70894
 Alpha  occ. eigenvalues --   -0.66713  -0.66713  -0.66671  -0.66671  -0.30247
 Alpha  occ. eigenvalues --   -0.30247
 Alpha virt. eigenvalues --   -0.25283  -0.25283   0.26273   0.26273   0.67739
 Alpha virt. eigenvalues --    0.67741   0.71688   0.71688   0.71688   0.71688
 Alpha virt. eigenvalues --    0.75344   0.75345   0.81965   0.81965   0.81965

 Mulliken charges and spin densities:
               1          2
     1  O    0.004237   0.000000
     2  O   -0.004237   0.000000
     3  O   -0.004237   0.000000
     4  O    0.004237   0.000000
 Sum of Mulliken charges =  -0.00000   0.00000

 Dipole moment (field-independent basis, Debye):
    X=             -0.0000    Y=             -0.0000    Z=              0.0000  Tot=              0.0000
 Quadrupole moment (field-independent basis, Debye-Ang):
   XX=            -20.7394   YY=            -20.7394   ZZ=            -21.1198
   XY=              0.0000   XZ=              0.0000   YZ=              0.0000

 MP2-0=-303.5734009\MP4SDQ=-501.4239325\CCSD=-299.9569485\CCSD(T)=-300.
 Normal termination of Gaussian 16 at Sun Jan 15 10:21:21 2023.
