 Gaussian 16, Revision A.03,
 Gaussian 16:  ES64L-G16RevA.03 25-Dec-2016

 ----------------------------------------------------------------------
 #p ROCCSD(T,MaxCyc=350)/cc-pVTZ Guess=Read SCF=(VeryTight,MaxCycle=250
 0,CDIIS,VShift=10)
 ----------------------------------------------------------------------

 ---------
 O2_O2_175
 ---------
 Symbolic Z-matrix:
 Charge =  0 Multiplicity = 1

                         Standard orientation:
 ---------------------------------------------------------------------
 Center     Atomic      Atomic             Coordinates (Angstroms)
 Number     Number       Type             X           Y           Z
 ---------------------------------------------------------------------
      1          8           0        0.000000    0.000000    3.270327
      2          8           0        0.000000    0.000000    4.622708
      3          8           0        0.000000    0.000000   -4.622708
      4          8           0        0.000000    0.000000   -3.270327
 ---------------------------------------------------------------------

 SCF Done:  E(ROHF) =  -298.657053352     A.U. after    6 cycles
 E2 =    -0.3739387689D+01 EUMP2 =    -0.30239644104112D+03
 CCSD(T)
 CCSD(T)= -0.30030961289D+03

 The electronic state is 1-SGG.
 Alpha  occ. eigenvalues --  -20.79175 -20.79175 -20.78465 -20.78465  -1.55885
 Alpha  occ. eigenvalues --   -1.55883  -1.16170  -1.16141  -0.70904  -0.70902
 Alpha  occ. eigenvalues --   -0.66756  -0.66756  -0.66647  -0.66647  -0.31181
 Alpha  occ. eigenvalues --   -0.31181
 Alpha virt. eigenvalues --   -0.24363  -0.24363   0.26265   0.26266   0.67724
 Alpha virt. eigenvalues --    0.67735   0.71680   0.71680   0.71680   0.71680
 Alpha virt. eigenvalues --    0.75337   0.75340   0.81959   0.81959   0.81959

 Mulliken charges and spin densities:
               1          2
     1  O    0.007921   0.000000
     2  O   -0.007921   0.000000
     3  O   -0.007921   0.000000
     4  O    0.007921   0.000000
 Sum of Mulliken charges =  -0.00000   0.00000

 Dipole moment (field-independent basis, Debye):
    X=             -0.0000    Y=              0.0000    Z=             -0.0000  Tot=              0.0000
 Quadrupole moment (field-independent basis, Debye-Ang):
   XX=            -20.7394   YY=            -20.7394   ZZ=            -21.3081
   XY=              0.0000   XZ=              0.0000   YZ=              0.0000

 0=-302.396441\MP4SDQ=-355.9978375\CCSD=-299.958559\CCSD(T)=-300.309612
 Normal termination of Gaussian 16 at Sun Jan 15 06:25:35 2023.
