 Gaussian 16, Revision A.03,
 Gaussian 16:  ES64L-G16RevA.03 25-Dec-2016

 ---------------------------------------------------------------
 #p ROCCSD(T)/cc-pVTZ Guess=Read SCF=(VeryTight,CDIIS,VShift=10)
 ---------------------------------------------------------------

 --------
 O2_O2_55
 --------
 Symbolic Z-matrix:
 Charge =  0 Multiplicity = 1

                         Standard orientation:
 ---------------------------------------------------------------------
 Center     Atomic      Atomic             Coordinates (Angstroms)
 Number     Number       Type             X           Y           Z
 ---------------------------------------------------------------------
      1          8           0        0.000000    0.000000    1.571298
      2          8           0        0.000000    0.000000    2.923678
      3          8           0        0.000000    0.000000   -2.923678
      4          8           0        0.000000    0.000000   -1.571298
 ---------------------------------------------------------------------

 SCF Done:  E(ROHF) =  -298.719854218     A.U. after    8 cycles
 E2 =    -0.2272002751D+01 EUMP2 =    -0.30099185696887D+03
 CCSD(T)
 CCSD(T)= -0.30024345768D+03

 The electronic state is 1-SGG.
 Alpha  occ. eigenvalues --  -20.80543 -20.80541 -20.77848 -20.77848  -1.56223
 Alpha  occ. eigenvalues --   -1.56137  -1.16677  -1.16144  -0.71675  -0.70684
 Alpha  occ. eigenvalues --   -0.67340  -0.67340  -0.66576  -0.66576  -0.34361
 Alpha  occ. eigenvalues --   -0.34361
 Alpha virt. eigenvalues --   -0.21568  -0.21568   0.23382   0.28669   0.58721
 Alpha virt. eigenvalues --    0.70080   0.70080   0.70499   0.72437   0.72437
 Alpha virt. eigenvalues --    0.72725   0.79547   0.79547   0.84950   0.84950

 Mulliken charges and spin densities:
               1          2
     1  O    0.025303   0.000000
     2  O   -0.025303   0.000000
     3  O   -0.025303   0.000000
     4  O    0.025303   0.000000
 Sum of Mulliken charges =   0.00000   0.00000

 Dipole moment (field-independent basis, Debye):
    X=             -0.0000    Y=             -0.0000    Z=              0.0000  Tot=              0.0000
 Quadrupole moment (field-independent basis, Debye-Ang):
   XX=            -20.7751   YY=            -20.7751   ZZ=            -21.7087
   XY=              0.0000   XZ=              0.0000   YZ=              0.0000

 .2164455\CCSD=-299.9680066\CCSD(T)=-300.2434577\RMSD=1.577e-09\PG=D*H
 Normal termination of Gaussian 16 at Sat Jan 14 20:55:55 2023.
