 Gaussian 16, Revision A.03,
 Gaussian 16:  ES64L-G16RevA.03 25-Dec-2016

 ---------------------------------------------------------------
 #p ROCCSD(T)/cc-pVTZ Guess=Read SCF=(VeryTight,CDIIS,VShift=10)
 ---------------------------------------------------------------

 --------
 O2_O2_26
 --------
 Symbolic Z-matrix:
 Charge =  0 Multiplicity = 1

                         Standard orientation:
 ---------------------------------------------------------------------
 Center     Atomic      Atomic             Coordinates (Angstroms)
 Number     Number       Type             X           Y           Z
 ---------------------------------------------------------------------
      1          8           0        0.000000    0.000000    1.160699
      2          8           0        0.000000    0.000000    2.513079
      3          8           0        0.000000    0.000000   -2.513079
      4          8           0        0.000000    0.000000   -1.160699
 ---------------------------------------------------------------------

 SCF Done:  E(ROHF) =  -298.774436521     A.U. after    8 cycles
 E2 =    -0.1859942921D+01 EUMP2 =    -0.30063437944166D+03
 CCSD(T)
 CCSD(T)= -0.30019787746D+03

 The electronic state is 1-SGG.
 Alpha  occ. eigenvalues --  -20.82639 -20.82634 -20.77152 -20.77152  -1.57085
 Alpha  occ. eigenvalues --   -1.56457  -1.18525  -1.15414  -0.74288  -0.68951
 Alpha  occ. eigenvalues --   -0.68466  -0.68466  -0.66396  -0.66396  -0.36990
 Alpha  occ. eigenvalues --   -0.36990
 Alpha virt. eigenvalues --   -0.19492  -0.19492   0.23687   0.30721   0.67310
 Alpha virt. eigenvalues --    0.67310   0.68350   0.71265   0.73199   0.73199
 Alpha virt. eigenvalues --    0.76210   0.77917   0.77917   0.87304   0.88392

 Mulliken charges and spin densities:
               1          2
     1  O    0.053614   0.000000
     2  O   -0.053614   0.000000
     3  O   -0.053614   0.000000
     4  O    0.053614   0.000000
 Sum of Mulliken charges =  -0.00000   0.00000

 Dipole moment (field-independent basis, Debye):
    X=             -0.0000    Y=              0.0000    Z=             -0.0000  Tot=              0.0000
 Quadrupole moment (field-independent basis, Debye-Ang):
   XX=            -20.8505   YY=            -20.8505   ZZ=            -22.0719
   XY=              0.0000   XZ=              0.0000   YZ=              0.0000

 00.2039264\CCSD=-299.983303\CCSD(T)=-300.1978775\RMSD=4.728e-09\PG=D*H
 Normal termination of Gaussian 16 at Sat Jan 14 20:13:55 2023.
