 Gaussian 16, Revision A.03,
 Gaussian 16:  ES64L-G16RevA.03 25-Dec-2016

 ----------------------------------------------------------------------
 #p ROCCSD(T,MaxCyc=250)/cc-pVTZ Guess=Read SCF=(VeryTight,MaxCycle=250
 0,CDIIS,VShift=10)
 ----------------------------------------------------------------------

 ---------
 O2_O2_139
 ---------
 Symbolic Z-matrix:
 Charge =  0 Multiplicity = 1

                         Standard orientation:
 ---------------------------------------------------------------------
 Center     Atomic      Atomic             Coordinates (Angstroms)
 Number     Number       Type             X           Y           Z
 ---------------------------------------------------------------------
      1          8           0        0.000000    0.000000    2.760619
      2          8           0        0.000000    0.000000    4.112999
      3          8           0        0.000000    0.000000   -4.112999
      4          8           0        0.000000    0.000000   -2.760619
 ---------------------------------------------------------------------

 SCF Done:  E(ROHF) =  -298.667619244     A.U. after    6 cycles
 E2 =    -0.3311193730D+01 EUMP2 =    -0.30197881297437D+03
 CCSD(T)
 CCSD(T)= -0.30029769777D+03

 The electronic state is 1-SGG.
 Alpha  occ. eigenvalues --  -20.79300 -20.79299 -20.78357 -20.78357  -1.55896
 Alpha  occ. eigenvalues --   -1.55891  -1.16187  -1.16141  -0.70916  -0.70909
 Alpha  occ. eigenvalues --   -0.66795  -0.66795  -0.66627  -0.66627  -0.31717
 Alpha  occ. eigenvalues --   -0.31717
 Alpha virt. eigenvalues --   -0.23842  -0.23842   0.26227   0.26286   0.67605
 Alpha virt. eigenvalues --    0.67829   0.71670   0.71670   0.71673   0.71673
 Alpha virt. eigenvalues --    0.75287   0.75379   0.81948   0.81948   0.81956

 Mulliken charges and spin densities:
               1          2
     1  O    0.010491   0.000000
     2  O   -0.010491   0.000000
     3  O   -0.010491   0.000000
     4  O    0.010491   0.000000
 Sum of Mulliken charges =   0.00000   0.00000

 Dipole moment (field-independent basis, Debye):
    X=             -0.0000    Y=              0.0000    Z=              0.0000  Tot=              0.0000
 Quadrupole moment (field-independent basis, Debye-Ang):
   XX=            -20.7395   YY=            -20.7395   ZZ=            -21.4135
   XY=              0.0000   XZ=              0.0000   YZ=              0.0000

 -0=-301.978813\MP4SDQ=-329.6164093\CCSD=-299.9596166\CCSD(T)=-300.2976
 Normal termination of Gaussian 16 at Sun Jan 15 04:06:38 2023.
