 Gaussian 16, Revision A.03,
 Gaussian 16:  ES64L-G16RevA.03 25-Dec-2016

 ----------------------------------------------------------------------
 #p ROCCSD(T,MaxCyc=350)/cc-pVTZ Guess=Read SCF=(VeryTight,MaxCycle=250
 0,CDIIS,VShift=10)
 ----------------------------------------------------------------------

 ---------
 O2_O2_183
 ---------
 Symbolic Z-matrix:
 Charge =  0 Multiplicity = 1

                         Standard orientation:
 ---------------------------------------------------------------------
 Center     Atomic      Atomic             Coordinates (Angstroms)
 Number     Number       Type             X           Y           Z
 ---------------------------------------------------------------------
      1          8           0        0.000000    0.000000    3.383596
      2          8           0        0.000000    0.000000    4.735976
      3          8           0        0.000000    0.000000   -4.735976
      4          8           0        0.000000    0.000000   -3.383596
 ---------------------------------------------------------------------

 SCF Done:  E(ROHF) =  -298.655087208     A.U. after    6 cycles
 E2 =    -0.3834331827D+01 EUMP2 =    -0.30248941903519D+03
 CCSD(T)
 CCSD(T)= -0.30031186505D+03

 The electronic state is 1-SGG.
 Alpha  occ. eigenvalues --  -20.79154 -20.79153 -20.78483 -20.78483  -1.55883
 Alpha  occ. eigenvalues --   -1.55882  -1.16168  -1.16141  -0.70903  -0.70901
 Alpha  occ. eigenvalues --   -0.66750  -0.66750  -0.66650  -0.66650  -0.31082
 Alpha  occ. eigenvalues --   -0.31082
 Alpha virt. eigenvalues --   -0.24461  -0.24461   0.26266   0.26267   0.67728
 Alpha virt. eigenvalues --    0.67735   0.71681   0.71681   0.71681   0.71681
 Alpha virt. eigenvalues --    0.75339   0.75341   0.81960   0.81960   0.81960

 Mulliken charges and spin densities:
               1          2
     1  O    0.007479   0.000000
     2  O   -0.007479   0.000000
     3  O   -0.007479   0.000000
     4  O    0.007479   0.000000
 Sum of Mulliken charges =  -0.00000   0.00000

 Dipole moment (field-independent basis, Debye):
    X=             -0.0000    Y=              0.0000    Z=              0.0000  Tot=              0.0000
 Quadrupole moment (field-independent basis, Debye-Ang):
   XX=            -20.7394   YY=            -20.7394   ZZ=            -21.2883
   XY=              0.0000   XZ=              0.0000   YZ=              0.0000

 -0=-302.489419\MP4SDQ=-363.4169953\CCSD=-299.9583721\CCSD(T)=-300.3118
 Normal termination of Gaussian 16 at Sun Jan 15 06:50:18 2023.
