 Gaussian 16, Revision A.03,
 Gaussian 16:  ES64L-G16RevA.03 25-Dec-2016

 ---------------------------------------------------------------
 #p ROCCSD(T)/cc-pVTZ Guess=Read SCF=(VeryTight,CDIIS,VShift=10)
 ---------------------------------------------------------------

 --------
 O2_O2_95
 --------
 Symbolic Z-matrix:
 Charge =  0 Multiplicity = 1

                         Standard orientation:
 ---------------------------------------------------------------------
 Center     Atomic      Atomic             Coordinates (Angstroms)
 Number     Number       Type             X           Y           Z
 ---------------------------------------------------------------------
      1          8           0        0.000000    0.000000    2.137641
      2          8           0        0.000000    0.000000    3.490021
      3          8           0        0.000000    0.000000   -3.490021
      4          8           0        0.000000    0.000000   -2.137641
 ---------------------------------------------------------------------

 SCF Done:  E(ROHF) =  -298.686657388     A.U. after    7 cycles
 E2 =    -0.2781755054D+01 EUMP2 =    -0.30146841244219D+03
 CCSD(T)
 CCSD(T)= -0.30027708203D+03

 The electronic state is 1-SGG.
 Alpha  occ. eigenvalues --  -20.79601 -20.79600 -20.78149 -20.78149  -1.55942
 Alpha  occ. eigenvalues --   -1.55928  -1.16255  -1.16147  -0.71000  -0.70908
 Alpha  occ. eigenvalues --   -0.66912  -0.66912  -0.66589  -0.66589  -0.32689
 Alpha  occ. eigenvalues --   -0.32689
 Alpha virt. eigenvalues --   -0.22930  -0.22930   0.25434   0.26898   0.64288
 Alpha virt. eigenvalues --    0.70002   0.71552   0.71552   0.71725   0.71725
 Alpha virt. eigenvalues --    0.74210   0.77753   0.81710   0.81710   0.82151

 Mulliken charges and spin densities:
               1          2
     1  O    0.015758  -0.000000
     2  O   -0.015758  -0.000000
     3  O   -0.015758  -0.000000
     4  O    0.015758  -0.000000
 Sum of Mulliken charges =  -0.00000  -0.00000

 Dipole moment (field-independent basis, Debye):
    X=             -0.0000    Y=              0.0000    Z=             -0.0000  Tot=              0.0000
 Quadrupole moment (field-independent basis, Debye-Ang):
   XX=            -20.7424   YY=            -20.7424   ZZ=            -21.5805
   XY=              0.0000   XZ=              0.0000   YZ=              0.0000

 10.424635\CCSD=-299.9619042\CCSD(T)=-300.277082\RMSD=2.885e-09\PG=D*H
 Normal termination of Gaussian 16 at Sat Jan 14 21:57:08 2023.
