 Gaussian 16, Revision A.03,
 Gaussian 16:  ES64L-G16RevA.03 25-Dec-2016

 ---------------------------------------------------------------
 #p ROCCSD(T)/cc-pVTZ Guess=Read SCF=(VeryTight,CDIIS,VShift=10)
 ---------------------------------------------------------------

 --------
 O2_O2_64
 --------
 Symbolic Z-matrix:
 Charge =  0 Multiplicity = 1

                         Standard orientation:
 ---------------------------------------------------------------------
 Center     Atomic      Atomic             Coordinates (Angstroms)
 Number     Number       Type             X           Y           Z
 ---------------------------------------------------------------------
      1          8           0        0.000000    0.000000    1.698725
      2          8           0        0.000000    0.000000    3.051105
      3          8           0        0.000000    0.000000   -3.051105
      4          8           0        0.000000    0.000000   -1.698725
 ---------------------------------------------------------------------

 SCF Done:  E(ROHF) =  -298.709741334     A.U. after    7 cycles
 E2 =    -0.2391523378D+01 EUMP2 =    -0.30110126471233D+03
 CCSD(T)
 CCSD(T)= -0.30025333616D+03

 The electronic state is 1-SGG.
 Alpha  occ. eigenvalues --  -20.80205 -20.80203 -20.77935 -20.77934  -1.56111
 Alpha  occ. eigenvalues --   -1.56060  -1.16499  -1.16162  -0.71384  -0.70803
 Alpha  occ. eigenvalues --   -0.67183  -0.67183  -0.66577  -0.66577  -0.33861
 Alpha  occ. eigenvalues --   -0.33861
 Alpha virt. eigenvalues --   -0.21954  -0.21954   0.23623   0.28214   0.58091
 Alpha virt. eigenvalues --    0.70719   0.70719   0.70889   0.72183   0.72183
 Alpha virt. eigenvalues --    0.72980   0.80294   0.80294   0.83767   0.83767

 Mulliken charges and spin densities:
               1          2
     1  O    0.022230   0.000000
     2  O   -0.022230   0.000000
     3  O   -0.022230   0.000000
     4  O    0.022230   0.000000
 Sum of Mulliken charges =  -0.00000   0.00000

 Dipole moment (field-independent basis, Debye):
    X=             -0.0000    Y=             -0.0000    Z=              0.0000  Tot=              0.0000
 Quadrupole moment (field-independent basis, Debye-Ang):
   XX=            -20.7617   YY=            -20.7617   ZZ=            -21.6841
   XY=              0.0000   XZ=              0.0000   YZ=              0.0000

 03.4470997\CCSD=-299.9658263\CCSD(T)=-300.2533362\RMSD=6.073e-09\PG=D*
 Normal termination of Gaussian 16 at Sat Jan 14 21:10:14 2023.
