 Gaussian 16, Revision A.03,
 Gaussian 16:  ES64L-G16RevA.03 25-Dec-2016

 ---------------------------------------------------------------
 #p ROCCSD(T)/cc-pVTZ Guess=Read SCF=(VeryTight,CDIIS,VShift=10)
 ---------------------------------------------------------------

 --------
 O2_O2_83
 --------
 Symbolic Z-matrix:
 Charge =  0 Multiplicity = 1

                         Standard orientation:
 ---------------------------------------------------------------------
 Center     Atomic      Atomic             Coordinates (Angstroms)
 Number     Number       Type             X           Y           Z
 ---------------------------------------------------------------------
      1          8           0        0.000000    0.000000    1.967738
      2          8           0        0.000000    0.000000    3.320118
      3          8           0        0.000000    0.000000   -3.320118
      4          8           0        0.000000    0.000000   -1.967738
 ---------------------------------------------------------------------

 SCF Done:  E(ROHF) =  -298.694066056     A.U. after    7 cycles
 E2 =    -0.2633659178D+01 EUMP2 =    -0.30132772523449D+03
 CCSD(T)
 CCSD(T)= -0.30026931922D+03

 The electronic state is 1-SGG.
 Alpha  occ. eigenvalues --  -20.79764 -20.79763 -20.78074 -20.78074  -1.55981
 Alpha  occ. eigenvalues --   -1.55960  -1.16309  -1.16155  -0.71081  -0.70893
 Alpha  occ. eigenvalues --   -0.66983  -0.66983  -0.66581  -0.66581  -0.33068
 Alpha  occ. eigenvalues --   -0.33068
 Alpha virt. eigenvalues --   -0.22600  -0.22600   0.24764   0.27344   0.61484
 Alpha virt. eigenvalues --    0.70797   0.71393   0.71393   0.71824   0.71824
 Alpha virt. eigenvalues --    0.73656   0.81388   0.81388   0.81475   0.82465

 Mulliken charges and spin densities:
               1          2
     1  O    0.017866  -0.000000
     2  O   -0.017866  -0.000000
     3  O   -0.017866  -0.000000
     4  O    0.017866  -0.000000
 Sum of Mulliken charges =  -0.00000  -0.00000

 Dipole moment (field-independent basis, Debye):
    X=             -0.0000    Y=              0.0000    Z=             -0.0000  Tot=              0.0000
 Quadrupole moment (field-independent basis, Debye-Ang):
   XX=            -20.7464   YY=            -20.7464   ZZ=            -21.6252
   XY=              0.0000   XZ=              0.0000   YZ=              0.0000

 07.1782\CCSD=-299.9630069\CCSD(T)=-300.2693192\RMSD=5.086e-09\PG=D*H [
 Normal termination of Gaussian 16 at Sat Jan 14 21:38:22 2023.
