 Gaussian 16, Revision A.03,
 Gaussian 16:  ES64L-G16RevA.03 25-Dec-2016

 ----------------------------------------------------------------------
 #p ROCCSD(T,MaxCyc=350)/cc-pVTZ Guess=Read SCF=(VeryTight,MaxCycle=250
 0,CDIIS,VShift=10)
 ----------------------------------------------------------------------

 ---------
 O2_O2_199
 ---------
 Symbolic Z-matrix:
 Charge =  0 Multiplicity = 1

                         Standard orientation:
 ---------------------------------------------------------------------
 Center     Atomic      Atomic             Coordinates (Angstroms)
 Number     Number       Type             X           Y           Z
 ---------------------------------------------------------------------
      1          8           0        0.000000    0.000000    3.610134
      2          8           0        0.000000    0.000000    4.962514
      3          8           0        0.000000    0.000000   -4.962514
      4          8           0        0.000000    0.000000   -3.610134
 ---------------------------------------------------------------------

 SCF Done:  E(ROHF) =  -298.651481864     A.U. after    6 cycles
 E2 =    -0.4024054578D+01 EUMP2 =    -0.30267553644233D+03
 CCSD(T)
 CCSD(T)= -0.30031603652D+03

 The electronic state is 1-SGG.
 Alpha  occ. eigenvalues --  -20.79117 -20.79117 -20.78516 -20.78516  -1.55881
 Alpha  occ. eigenvalues --   -1.55880  -1.16163  -1.16141  -0.70900  -0.70899
 Alpha  occ. eigenvalues --   -0.66740  -0.66740  -0.66656  -0.66656  -0.30900
 Alpha  occ. eigenvalues --   -0.30900
 Alpha virt. eigenvalues --   -0.24639  -0.24639   0.26268   0.26268   0.67732
 Alpha virt. eigenvalues --    0.67737   0.71683   0.71683   0.71683   0.71683
 Alpha virt. eigenvalues --    0.75340   0.75342   0.81961   0.81961   0.81961

 Mulliken charges and spin densities:
               1          2
     1  O    0.006700  -0.000000
     2  O   -0.006700   0.000000
     3  O   -0.006700  -0.000000
     4  O    0.006700  -0.000000
 Sum of Mulliken charges =  -0.00000  -0.00000

 Dipole moment (field-independent basis, Debye):
    X=             -0.0000    Y=              0.0000    Z=              0.0000  Tot=              0.0000
 Quadrupole moment (field-independent basis, Debye-Ang):
   XX=            -20.7394   YY=            -20.7394   ZZ=            -21.2518
   XY=              0.0000   XZ=              0.0000   YZ=              0.0000

 2-0=-302.6755364\MP4SDQ=-380.1369659\CCSD=-299.9580432\CCSD(T)=-300.31
 Normal termination of Gaussian 16 at Sun Jan 15 07:37:01 2023.
