 Gaussian 16, Revision A.03,
 Gaussian 16:  ES64L-G16RevA.03 25-Dec-2016

 ----------------------------------------------------------------------
 #p ROCCSD(T,MaxCyc=350)/cc-pVTZ Guess=Read SCF=(VeryTight,MaxCycle=250
 0,CDIIS,VShift=10)
 ----------------------------------------------------------------------

 ---------
 O2_O2_281
 ---------
 Symbolic Z-matrix:
 Charge =  0 Multiplicity = 1

                         Standard orientation:
 ---------------------------------------------------------------------
 Center     Atomic      Atomic             Coordinates (Angstroms)
 Number     Number       Type             X           Y           Z
 ---------------------------------------------------------------------
      1          8           0        0.000000    0.000000    4.771137
      2          8           0        0.000000    0.000000    6.123517
      3          8           0        0.000000    0.000000   -6.123517
      4          8           0        0.000000    0.000000   -4.771137
 ---------------------------------------------------------------------

 SCF Done:  E(ROHF) =  -298.637869857     A.U. after    6 cycles
 E2 =    -0.4993925648D+01 EUMP2 =    -0.30363179550538D+03
 CCSD(T)
 CCSD(T)= -0.30033213280D+03

 The electronic state is 1-SGG.
 Alpha  occ. eigenvalues --  -20.78997 -20.78997 -20.78625 -20.78625  -1.55875
 Alpha  occ. eigenvalues --   -1.55874  -1.16153  -1.16142  -0.70894  -0.70894
 Alpha  occ. eigenvalues --   -0.66712  -0.66712  -0.66672  -0.66672  -0.30214
 Alpha  occ. eigenvalues --   -0.30214
 Alpha virt. eigenvalues --   -0.25316  -0.25316   0.26273   0.26273   0.67740
 Alpha virt. eigenvalues --    0.67742   0.71688   0.71688   0.71689   0.71689
 Alpha virt. eigenvalues --    0.75344   0.75345   0.81965   0.81965   0.81965

 Mulliken charges and spin densities:
               1          2
     1  O    0.004126   0.000000
     2  O   -0.004126   0.000000
     3  O   -0.004126   0.000000
     4  O    0.004126   0.000000
 Sum of Mulliken charges =  -0.00000   0.00000

 Dipole moment (field-independent basis, Debye):
    X=             -0.0000    Y=              0.0000    Z=              0.0000  Tot=              0.0000
 Quadrupole moment (field-independent basis, Debye-Ang):
   XX=            -20.7394   YY=            -20.7394   ZZ=            -21.1131
   XY=              0.0000   XZ=              0.0000   YZ=              0.0000

 MP2-0=-303.6317955\MP4SDQ=-511.9553657\CCSD=-299.9568937\CCSD(T)=-300.
 Normal termination of Gaussian 16 at Sun Jan 15 10:32:59 2023.
