 Gaussian 16, Revision A.03,
 Gaussian 16:  ES64L-G16RevA.03 25-Dec-2016

 ---------------------------------------------------------------
 #p ROCCSD(T)/cc-pVTZ Guess=Read SCF=(VeryTight,CDIIS,VShift=10)
 ---------------------------------------------------------------

 --------
 O2_O2_33
 --------
 Symbolic Z-matrix:
 Charge =  0 Multiplicity = 1

                         Standard orientation:
 ---------------------------------------------------------------------
 Center     Atomic      Atomic             Coordinates (Angstroms)
 Number     Number       Type             X           Y           Z
 ---------------------------------------------------------------------
      1          8           0        0.000000    0.000000    1.259809
      2          8           0        0.000000    0.000000    2.612189
      3          8           0        0.000000    0.000000   -2.612189
      4          8           0        0.000000    0.000000   -1.259809
 ---------------------------------------------------------------------

 SCF Done:  E(ROHF) =  -298.757463841     A.U. after    8 cycles
 E2 =    -0.1962844319D+01 EUMP2 =    -0.30072030816034D+03
 CCSD(T)
 CCSD(T)= -0.30021072162D+03

 The electronic state is 1-SGG.
 Alpha  occ. eigenvalues --  -20.81960 -20.81956 -20.77436 -20.77436  -1.56765
 Alpha  occ. eigenvalues --   -1.56393  -1.17757  -1.15780  -0.73295  -0.69724
 Alpha  occ. eigenvalues --   -0.68060  -0.68060  -0.66498  -0.66498  -0.36159
 Alpha  occ. eigenvalues --   -0.36159
 Alpha virt. eigenvalues --   -0.20178  -0.20178   0.23590   0.30068   0.67803
 Alpha virt. eigenvalues --    0.67803   0.68881   0.69794   0.71825   0.73048
 Alpha virt. eigenvalues --    0.73048   0.78050   0.78050   0.87673   0.88474

 Mulliken charges and spin densities:
               1          2
     1  O    0.042243  -0.000000
     2  O   -0.042243  -0.000000
     3  O   -0.042243  -0.000000
     4  O    0.042243  -0.000000
 Sum of Mulliken charges =   0.00000  -0.00000

 Dipole moment (field-independent basis, Debye):
    X=             -0.0000    Y=             -0.0000    Z=              0.0000  Tot=              0.0000
 Quadrupole moment (field-independent basis, Debye-Ang):
   XX=            -20.8300   YY=            -20.8300   ZZ=            -21.8851
   XY=              0.0000   XZ=              0.0000   YZ=              0.0000

 00.4521753\CCSD=-299.9781371\CCSD(T)=-300.2107216\RMSD=2.749e-09\PG=D*
 Normal termination of Gaussian 16 at Sat Jan 14 20:24:00 2023.
