 Gaussian 16, Revision A.03,
 Gaussian 16:  ES64L-G16RevA.03 25-Dec-2016

 ----------------------------------------------------------------------
 #p ROCCSD(T,MaxCyc=250)/cc-pVTZ Guess=Read SCF=(VeryTight,MaxCycle=250
 0,CDIIS,VShift=10)
 ----------------------------------------------------------------------

 ---------
 O2_O2_136
 ---------
 Symbolic Z-matrix:
 Charge =  0 Multiplicity = 1

                         Standard orientation:
 ---------------------------------------------------------------------
 Center     Atomic      Atomic             Coordinates (Angstroms)
 Number     Number       Type             X           Y           Z
 ---------------------------------------------------------------------
      1          8           0        0.000000    0.000000    2.718142
      2          8           0        0.000000    0.000000    4.070523
      3          8           0        0.000000    0.000000   -4.070523
      4          8           0        0.000000    0.000000   -2.718142
 ---------------------------------------------------------------------

 SCF Done:  E(ROHF) =  -298.668655504     A.U. after    6 cycles
 E2 =    -0.3275409560D+01 EUMP2 =    -0.30194406506362D+03
 CCSD(T)
 CCSD(T)= -0.30029654949D+03

 The electronic state is 1-SGG.
 Alpha  occ. eigenvalues --  -20.79313 -20.79313 -20.78346 -20.78346  -1.55897
 Alpha  occ. eigenvalues --   -1.55892  -1.16189  -1.16141  -0.70918  -0.70910
 Alpha  occ. eigenvalues --   -0.66800  -0.66800  -0.66625  -0.66625  -0.31770
 Alpha  occ. eigenvalues --   -0.31770
 Alpha virt. eigenvalues --   -0.23791  -0.23791   0.26217   0.26294   0.67568
 Alpha virt. eigenvalues --    0.67861   0.71668   0.71668   0.71672   0.71672
 Alpha virt. eigenvalues --    0.75271   0.75393   0.81946   0.81946   0.81956

 Mulliken charges and spin densities:
               1          2
     1  O    0.010760   0.000000
     2  O   -0.010760   0.000000
     3  O   -0.010760   0.000000
     4  O    0.010760   0.000000
 Sum of Mulliken charges =  -0.00000   0.00000

 Dipole moment (field-independent basis, Debye):
    X=             -0.0000    Y=              0.0000    Z=             -0.0000  Tot=              0.0000
 Quadrupole moment (field-independent basis, Debye-Ang):
   XX=            -20.7395   YY=            -20.7395   ZZ=            -21.4237
   XY=              0.0000   XZ=              0.0000   YZ=              0.0000

 2-0=-301.9440651\MP4SDQ=-327.8911474\CCSD=-299.9597274\CCSD(T)=-300.29
 Normal termination of Gaussian 16 at Sun Jan 15 04:01:08 2023.
