 Gaussian 16, Revision A.03,
 Gaussian 16:  ES64L-G16RevA.03 25-Dec-2016

 ---------------------------------------------------------------
 #p ROCCSD(T)/cc-pVTZ Guess=Read SCF=(VeryTight,CDIIS,VShift=10)
 ---------------------------------------------------------------

 --------
 O2_O2_89
 --------
 Symbolic Z-matrix:
 Charge =  0 Multiplicity = 1

                         Standard orientation:
 ---------------------------------------------------------------------
 Center     Atomic      Atomic             Coordinates (Angstroms)
 Number     Number       Type             X           Y           Z
 ---------------------------------------------------------------------
      1          8           0        0.000000    0.000000    2.052690
      2          8           0        0.000000    0.000000    3.405070
      3          8           0        0.000000    0.000000   -3.405070
      4          8           0        0.000000    0.000000   -2.052690
 ---------------------------------------------------------------------

 SCF Done:  E(ROHF) =  -298.690182174     A.U. after    7 cycles
 E2 =    -0.2708053058D+01 EUMP2 =    -0.30139823523221D+03
 CCSD(T)
 CCSD(T)= -0.30027337438D+03

 The electronic state is 1-SGG.
 Alpha  occ. eigenvalues --  -20.79674 -20.79673 -20.78113 -20.78112  -1.55959
 Alpha  occ. eigenvalues --   -1.55942  -1.16278  -1.16151  -0.71034  -0.70902
 Alpha  occ. eigenvalues --   -0.66944  -0.66944  -0.66584  -0.66584  -0.32869
 Alpha  occ. eigenvalues --   -0.32869
 Alpha virt. eigenvalues --   -0.22771  -0.22771   0.25127   0.27107   0.62970
 Alpha virt. eigenvalues --    0.70463   0.71488   0.71488   0.71765   0.71765
 Alpha virt. eigenvalues --    0.73926   0.79267   0.81577   0.81577   0.82277

 Mulliken charges and spin densities:
               1          2
     1  O    0.016764   0.000000
     2  O   -0.016764   0.000000
     3  O   -0.016764   0.000000
     4  O    0.016764   0.000000
 Sum of Mulliken charges =  -0.00000   0.00000

 Dipole moment (field-independent basis, Debye):
    X=             -0.0000    Y=              0.0000    Z=              0.0000  Tot=              0.0000
 Quadrupole moment (field-independent basis, Debye-Ang):
   XX=            -20.7440   YY=            -20.7440   ZZ=            -21.6034
   XY=              0.0000   XZ=              0.0000   YZ=              0.0000

 08.7089697\CCSD=-299.9624118\CCSD(T)=-300.2733744\RMSD=3.706e-09\PG=D*
 Normal termination of Gaussian 16 at Sat Jan 14 21:47:26 2023.
