 Gaussian 16, Revision A.03,
 Gaussian 16:  ES64L-G16RevA.03 25-Dec-2016

 ---------------------------------------------------------------
 #p ROCCSD(T)/cc-pVTZ Guess=Read SCF=(VeryTight,CDIIS,VShift=10)
 ---------------------------------------------------------------

 --------
 O2_O2_97
 --------
 Symbolic Z-matrix:
 Charge =  0 Multiplicity = 1

                         Standard orientation:
 ---------------------------------------------------------------------
 Center     Atomic      Atomic             Coordinates (Angstroms)
 Number     Number       Type             X           Y           Z
 ---------------------------------------------------------------------
      1          8           0        0.000000    0.000000    2.165958
      2          8           0        0.000000    0.000000    3.518338
      3          8           0        0.000000    0.000000   -3.518338
      4          8           0        0.000000    0.000000   -2.165958
 ---------------------------------------------------------------------

 SCF Done:  E(ROHF) =  -298.685551594     A.U. after    7 cycles
 E2 =    -0.2806192858D+01 EUMP2 =    -0.30149174445245D+03
 CCSD(T)
 CCSD(T)= -0.30027825719D+03

 The electronic state is 1-SGG.
 Alpha  occ. eigenvalues --  -20.79579 -20.79578 -20.78160 -20.78160  -1.55937
 Alpha  occ. eigenvalues --   -1.55925  -1.16248  -1.16146  -0.70990  -0.70909
 Alpha  occ. eigenvalues --   -0.66903  -0.66903  -0.66591  -0.66591  -0.32632
 Alpha  occ. eigenvalues --   -0.32632
 Alpha virt. eigenvalues --   -0.22981  -0.22981   0.25522   0.26836   0.64672
 Alpha virt. eigenvalues --    0.69832   0.71568   0.71568   0.71715   0.71715
 Alpha virt. eigenvalues --    0.74303   0.77378   0.81743   0.81743   0.82120

 Mulliken charges and spin densities:
               1          2
     1  O    0.015442  -0.000000
     2  O   -0.015442  -0.000000
     3  O   -0.015442  -0.000000
     4  O    0.015442  -0.000000
 Sum of Mulliken charges =  -0.00000  -0.00000

 Dipole moment (field-independent basis, Debye):
    X=             -0.0000    Y=              0.0000    Z=              0.0000  Tot=              0.0000
 Quadrupole moment (field-independent basis, Debye-Ang):
   XX=            -20.7419   YY=            -20.7419   ZZ=            -21.5727
   XY=              0.0000   XZ=              0.0000   YZ=              0.0000

 11.039266\CCSD=-299.9617543\CCSD(T)=-300.2782572\RMSD=2.718e-09\PG=D*H
 Normal termination of Gaussian 16 at Sat Jan 14 22:00:08 2023.
