 Gaussian 16, Revision A.03,
 Gaussian 16:  ES64L-G16RevA.03 25-Dec-2016

 ---------------------------------------------------------------
 #p ROCCSD(T)/cc-pVTZ Guess=Read SCF=(VeryTight,CDIIS,VShift=10)
 ---------------------------------------------------------------

 --------
 O2_O2_48
 --------
 Symbolic Z-matrix:
 Charge =  0 Multiplicity = 1

                         Standard orientation:
 ---------------------------------------------------------------------
 Center     Atomic      Atomic             Coordinates (Angstroms)
 Number     Number       Type             X           Y           Z
 ---------------------------------------------------------------------
      1          8           0        0.000000    0.000000    1.472188
      2          8           0        0.000000    0.000000    2.824568
      3          8           0        0.000000    0.000000   -2.824568
      4          8           0        0.000000    0.000000   -1.472188
 ---------------------------------------------------------------------

 SCF Done:  E(ROHF) =  -298.729510225     A.U. after    8 cycles
 E2 =    -0.2176325498D+01 EUMP2 =    -0.30090583572258D+03
 CCSD(T)
 CCSD(T)= -0.30023442851D+03

 The electronic state is 1-SGG.
 Alpha  occ. eigenvalues --  -20.80889 -20.80887 -20.77761 -20.77760  -1.56344
 Alpha  occ. eigenvalues --   -1.56212  -1.16890  -1.16100  -0.72015  -0.70519
 Alpha  occ. eigenvalues --   -0.67506  -0.67506  -0.66570  -0.66570  -0.34828
 Alpha  occ. eigenvalues --   -0.34828
 Alpha virt. eigenvalues --   -0.21211  -0.21211   0.23371   0.29053   0.60689
 Alpha virt. eigenvalues --    0.69411   0.69411   0.70046   0.72511   0.72647
 Alpha virt. eigenvalues --    0.72647   0.78959   0.78959   0.86181   0.86181

 Mulliken charges and spin densities:
               1          2
     1  O    0.028761   0.000000
     2  O   -0.028761   0.000000
     3  O   -0.028761   0.000000
     4  O    0.028761   0.000000
 Sum of Mulliken charges =  -0.00000   0.00000

 Dipole moment (field-independent basis, Debye):
    X=             -0.0000    Y=             -0.0000    Z=              0.0000  Tot=              0.0000
 Quadrupole moment (field-independent basis, Debye-Ang):
   XX=            -20.7891   YY=            -20.7891   ZZ=            -21.7342
   XY=              0.0000   XZ=              0.0000   YZ=              0.0000

 01.4743208\CCSD=-299.9703359\CCSD(T)=-300.2344285\RMSD=1.997e-09\PG=D*
 Normal termination of Gaussian 16 at Sat Jan 14 20:46:09 2023.
