 Gaussian 16, Revision A.03,
 Gaussian 16:  ES64L-G16RevA.03 25-Dec-2016

 ---------------------------------------------------------------
 #p ROCCSD(T)/cc-pVTZ Guess=Read SCF=(VeryTight,CDIIS,VShift=10)
 ---------------------------------------------------------------

 --------
 O2_O2_68
 --------
 Symbolic Z-matrix:
 Charge =  0 Multiplicity = 1

                         Standard orientation:
 ---------------------------------------------------------------------
 Center     Atomic      Atomic             Coordinates (Angstroms)
 Number     Number       Type             X           Y           Z
 ---------------------------------------------------------------------
      1          8           0        0.000000    0.000000    1.755359
      2          8           0        0.000000    0.000000    3.107739
      3          8           0        0.000000    0.000000   -3.107739
      4          8           0        0.000000    0.000000   -1.755359
 ---------------------------------------------------------------------

 SCF Done:  E(ROHF) =  -298.705900643     A.U. after    7 cycles
 E2 =    -0.2443522192D+01 EUMP2 =    -0.30114942283487D+03
 CCSD(T)
 CCSD(T)= -0.30025718698D+03

 The electronic state is 1-SGG.
 Alpha  occ. eigenvalues --  -20.80086 -20.80085 -20.77968 -20.77967  -1.56074
 Alpha  occ. eigenvalues --   -1.56032  -1.16443  -1.16163  -0.71293  -0.70834
 Alpha  occ. eigenvalues --   -0.67128  -0.67128  -0.66577  -0.66577  -0.33669
 Alpha  occ. eigenvalues --   -0.33669
 Alpha virt. eigenvalues --   -0.22106  -0.22106   0.23815   0.28020   0.58397
 Alpha virt. eigenvalues --    0.70926   0.70926   0.70981   0.72085   0.72085
 Alpha virt. eigenvalues --    0.73101   0.80589   0.80589   0.83375   0.83375

 Mulliken charges and spin densities:
               1          2
     1  O    0.021154   0.000000
     2  O   -0.021154   0.000000
     3  O   -0.021154   0.000000
     4  O    0.021154   0.000000
 Sum of Mulliken charges =  -0.00000   0.00000

 Dipole moment (field-independent basis, Debye):
    X=             -0.0000    Y=              0.0000    Z=              0.0000  Tot=              0.0000
 Quadrupole moment (field-independent basis, Debye-Ang):
   XX=            -20.7573   YY=            -20.7573   ZZ=            -21.6730
   XY=              0.0000   XZ=              0.0000   YZ=              0.0000

 04.0999942\CCSD=-299.9650725\CCSD(T)=-300.257187\RMSD=8.077e-09\PG=D*H
 Normal termination of Gaussian 16 at Sat Jan 14 21:16:25 2023.
