 Gaussian 16, Revision A.03,
 Gaussian 16:  ES64L-G16RevA.03 25-Dec-2016

 ---------------------------------------------------------------
 #p ROCCSD(T)/cc-pVTZ Guess=Read SCF=(VeryTight,CDIIS,VShift=10)
 ---------------------------------------------------------------

 --------
 O2_O2_14
 --------
 Symbolic Z-matrix:
 Charge =  0 Multiplicity = 1

                         Standard orientation:
 ---------------------------------------------------------------------
 Center     Atomic      Atomic             Coordinates (Angstroms)
 Number     Number       Type             X           Y           Z
 ---------------------------------------------------------------------
      1          8           0        0.000000    0.000000    0.990795
      2          8           0        0.000000    0.000000    2.343176
      3          8           0        0.000000    0.000000   -2.343176
      4          8           0        0.000000    0.000000   -0.990795
 ---------------------------------------------------------------------

 SCF Done:  E(ROHF) =  -298.806456917     A.U. after    9 cycles
 E2 =    -0.1683487196D+01 EUMP2 =    -0.30048994411295D+03
 CCSD(T)
 CCSD(T)= -0.30017348562D+03

 The electronic state is 1-SGG.
 Alpha  occ. eigenvalues --  -20.84076 -20.84068 -20.76226 -20.76225  -1.58045
 Alpha  occ. eigenvalues --   -1.56408  -1.21025  -1.14093  -0.76861  -0.69605
 Alpha  occ. eigenvalues --   -0.69605  -0.66285  -0.65975  -0.65975  -0.38851
 Alpha  occ. eigenvalues --   -0.38851
 Alpha virt. eigenvalues --   -0.17772  -0.17772   0.23738   0.32486   0.67362
 Alpha virt. eigenvalues --    0.67364   0.67364   0.70071   0.73474   0.73474
 Alpha virt. eigenvalues --    0.78339   0.78339   0.85155   0.86439   0.91038

 Mulliken charges and spin densities:
               1          2
     1  O    0.085388   0.000000
     2  O   -0.085388   0.000000
     3  O   -0.085388   0.000000
     4  O    0.085388   0.000000
 Sum of Mulliken charges =  -0.00000   0.00000

 Dipole moment (field-independent basis, Debye):
    X=             -0.0000    Y=              0.0000    Z=             -0.0000  Tot=              0.0000
 Quadrupole moment (field-independent basis, Debye-Ang):
   XX=            -20.8619   YY=            -20.8619   ZZ=            -22.8007
   XY=              0.0000   XZ=              0.0000   YZ=              0.0000

 00.0289547\CCSD=-299.9919612\CCSD(T)=-300.1734856\RMSD=6.187e-09\PG=D*
 Normal termination of Gaussian 16 at Sat Jan 14 19:56:23 2023.
