 Gaussian 16, Revision A.03,
 Gaussian 16:  ES64L-G16RevA.03 25-Dec-2016

 ----------------------------------------------------------------------
 #p ROCCSD(T,MaxCyc=350)/cc-pVTZ Guess=Read SCF=(VeryTight,MaxCycle=250
 0,CDIIS,VShift=10)
 ----------------------------------------------------------------------

 ---------
 O2_O2_196
 ---------
 Symbolic Z-matrix:
 Charge =  0 Multiplicity = 1

                         Standard orientation:
 ---------------------------------------------------------------------
 Center     Atomic      Atomic             Coordinates (Angstroms)
 Number     Number       Type             X           Y           Z
 ---------------------------------------------------------------------
      1          8           0        0.000000    0.000000    3.567658
      2          8           0        0.000000    0.000000    4.920038
      3          8           0        0.000000    0.000000   -4.920038
      4          8           0        0.000000    0.000000   -3.567658
 ---------------------------------------------------------------------

 SCF Done:  E(ROHF) =  -298.652127150     A.U. after    6 cycles
 E2 =    -0.3988496910D+01 EUMP2 =    -0.30264062406062D+03
 CCSD(T)
 CCSD(T)= -0.30031528766D+03

 The electronic state is 1-SGG.
 Alpha  occ. eigenvalues --  -20.79123 -20.79123 -20.78510 -20.78510  -1.55881
 Alpha  occ. eigenvalues --   -1.55880  -1.16164  -1.16141  -0.70901  -0.70899
 Alpha  occ. eigenvalues --   -0.66742  -0.66742  -0.66655  -0.66655  -0.30932
 Alpha  occ. eigenvalues --   -0.30932
 Alpha virt. eigenvalues --   -0.24607  -0.24607   0.26268   0.26268   0.67731
 Alpha virt. eigenvalues --    0.67736   0.71683   0.71683   0.71683   0.71683
 Alpha virt. eigenvalues --    0.75340   0.75341   0.81961   0.81961   0.81961

 Mulliken charges and spin densities:
               1          2
     1  O    0.006836   0.000000
     2  O   -0.006836   0.000000
     3  O   -0.006836   0.000000
     4  O    0.006836   0.000000
 Sum of Mulliken charges =  -0.00000   0.00000

 Dipole moment (field-independent basis, Debye):
    X=             -0.0000    Y=              0.0000    Z=              0.0000  Tot=              0.0000
 Quadrupole moment (field-independent basis, Debye-Ang):
   XX=            -20.7394   YY=            -20.7394   ZZ=            -21.2583
   XY=              0.0000   XZ=              0.0000   YZ=              0.0000

 2-0=-302.6406241\MP4SDQ=-376.8043555\CCSD=-299.9581016\CCSD(T)=-300.31
 Normal termination of Gaussian 16 at Sun Jan 15 07:27:48 2023.
