 Gaussian 16, Revision A.03,
 Gaussian 16:  ES64L-G16RevA.03 25-Dec-2016

 ----------------------------------------------------------------------
 #p ROCCSD(T,MaxCyc=250)/cc-pVTZ Guess=Read SCF=(VeryTight,MaxCycle=250
 0,CDIIS,VShift=10)
 ----------------------------------------------------------------------

 ---------
 O2_O2_144
 ---------
 Symbolic Z-matrix:
 Charge =  0 Multiplicity = 1

                         Standard orientation:
 ---------------------------------------------------------------------
 Center     Atomic      Atomic             Coordinates (Angstroms)
 Number     Number       Type             X           Y           Z
 ---------------------------------------------------------------------
      1          8           0        0.000000    0.000000    2.831412
      2          8           0        0.000000    0.000000    4.183792
      3          8           0        0.000000    0.000000   -4.183792
      4          8           0        0.000000    0.000000   -2.831412
 ---------------------------------------------------------------------

 SCF Done:  E(ROHF) =  -298.665953405     A.U. after    6 cycles
 E2 =    -0.3370787724D+01 EUMP2 =    -0.30203674112887D+03
 CCSD(T)
 CCSD(T)= -0.30029955466D+03

 The electronic state is 1-SGG.
 Alpha  occ. eigenvalues --  -20.79278 -20.79278 -20.78375 -20.78375  -1.55894
 Alpha  occ. eigenvalues --   -1.55890  -1.16184  -1.16141  -0.70913  -0.70908
 Alpha  occ. eigenvalues --   -0.66788  -0.66788  -0.66630  -0.66630  -0.31632
 Alpha  occ. eigenvalues --   -0.31632
 Alpha virt. eigenvalues --   -0.23924  -0.23924   0.26240   0.26277   0.67649
 Alpha virt. eigenvalues --    0.67790   0.71672   0.71672   0.71674   0.71674
 Alpha virt. eigenvalues --    0.75306   0.75362   0.81951   0.81951   0.81955

 Mulliken charges and spin densities:
               1          2
     1  O    0.010065   0.000000
     2  O   -0.010065   0.000000
     3  O   -0.010065   0.000000
     4  O    0.010065   0.000000
 Sum of Mulliken charges =  -0.00000   0.00000

 Dipole moment (field-independent basis, Debye):
    X=             -0.0000    Y=              0.0000    Z=             -0.0000  Tot=              0.0000
 Quadrupole moment (field-independent basis, Debye-Ang):
   XX=            -20.7394   YY=            -20.7394   ZZ=            -21.3971
   XY=              0.0000   XZ=              0.0000   YZ=              0.0000

 2-0=-302.0367411\MP4SDQ=-332.6435497\CCSD=-299.9594432\CCSD(T)=-300.29
 Normal termination of Gaussian 16 at Sun Jan 15 04:15:16 2023.
