 Gaussian 16, Revision A.03,
 Gaussian 16:  ES64L-G16RevA.03 25-Dec-2016

 ----------------------------------------------------------------------
 #p ROCCSD(T,MaxCyc=250)/cc-pVTZ Guess=Read SCF=(VeryTight,MaxCycle=250
 0,CDIIS,VShift=10)
 ----------------------------------------------------------------------

 ---------
 O2_O2_127
 ---------
 Symbolic Z-matrix:
 Charge =  0 Multiplicity = 1

                         Standard orientation:
 ---------------------------------------------------------------------
 Center     Atomic      Atomic             Coordinates (Angstroms)
 Number     Number       Type             X           Y           Z
 ---------------------------------------------------------------------
      1          8           0        0.000000    0.000000    2.590716
      2          8           0        0.000000    0.000000    3.943096
      3          8           0        0.000000    0.000000   -3.943096
      4          8           0        0.000000    0.000000   -2.590716
 ---------------------------------------------------------------------

 SCF Done:  E(ROHF) =  -298.671945804     A.U. after    6 cycles
 E2 =    -0.3167901582D+01 EUMP2 =    -0.30183984738621D+03
 CCSD(T)
 CCSD(T)= -0.30029292254D+03

 The electronic state is 1-SGG.
 Alpha  occ. eigenvalues --  -20.79357 -20.79357 -20.78310 -20.78310  -1.55902
 Alpha  occ. eigenvalues --   -1.55896  -1.16197  -1.16141  -0.70924  -0.70912
 Alpha  occ. eigenvalues --   -0.66815  -0.66815  -0.66618  -0.66618  -0.31937
 Alpha  occ. eigenvalues --   -0.31937
 Alpha virt. eigenvalues --   -0.23630  -0.23630   0.26167   0.26334   0.67386
 Alpha virt. eigenvalues --    0.68024   0.71661   0.71661   0.71671   0.71671
 Alpha virt. eigenvalues --    0.75194   0.75474   0.81936   0.81936   0.81961

 Mulliken charges and spin densities:
               1          2
     1  O    0.011633   0.000000
     2  O   -0.011633   0.000000
     3  O   -0.011633   0.000000
     4  O    0.011633   0.000000
 Sum of Mulliken charges =  -0.00000   0.00000

 Dipole moment (field-independent basis, Debye):
    X=             -0.0000    Y=              0.0000    Z=              0.0000  Tot=              0.0000
 Quadrupole moment (field-independent basis, Debye-Ang):
   XX=            -20.7396   YY=            -20.7396   ZZ=            -21.4556
   XY=              0.0000   XZ=              0.0000   YZ=              0.0000

 2-0=-301.8398474\MP4SDQ=-323.109912\CCSD=-299.9600861\CCSD(T)=-300.292
 Normal termination of Gaussian 16 at Sun Jan 15 03:48:13 2023.
