 Gaussian 16, Revision A.03,
 Gaussian 16:  ES64L-G16RevA.03 25-Dec-2016

 ---------------------------------------------------------------
 #p ROCCSD(T)/cc-pVTZ Guess=Read SCF=(VeryTight,CDIIS,VShift=10)
 ---------------------------------------------------------------

 --------
 O2_O2_52
 --------
 Symbolic Z-matrix:
 Charge =  0 Multiplicity = 1

                         Standard orientation:
 ---------------------------------------------------------------------
 Center     Atomic      Atomic             Coordinates (Angstroms)
 Number     Number       Type             X           Y           Z
 ---------------------------------------------------------------------
      1          8           0        0.000000    0.000000    1.528822
      2          8           0        0.000000    0.000000    2.881202
      3          8           0        0.000000    0.000000   -2.881202
      4          8           0        0.000000    0.000000   -1.528822
 ---------------------------------------------------------------------

 SCF Done:  E(ROHF) =  -298.723773337     A.U. after    8 cycles
 E2 =    -0.2231304844D+01 EUMP2 =    -0.30095507818131D+03
 CCSD(T)
 CCSD(T)= -0.30023974533D+03

 The electronic state is 1-SGG.
 Alpha  occ. eigenvalues --  -20.80681 -20.80679 -20.77814 -20.77813  -1.56271
 Alpha  occ. eigenvalues --   -1.56168  -1.16758  -1.16130  -0.71806  -0.70623
 Alpha  occ. eigenvalues --   -0.67405  -0.67405  -0.66574  -0.66574  -0.34551
 Alpha  occ. eigenvalues --   -0.34551
 Alpha virt. eigenvalues --   -0.21422  -0.21422   0.23361   0.28830   0.59395
 Alpha virt. eigenvalues --    0.69811   0.69811   0.70319   0.72527   0.72527
 Alpha virt. eigenvalues --    0.72637   0.79290   0.79290   0.85445   0.85445

 Mulliken charges and spin densities:
               1          2
     1  O    0.026637   0.000000
     2  O   -0.026637   0.000000
     3  O   -0.026637   0.000000
     4  O    0.026637   0.000000
 Sum of Mulliken charges =  -0.00000   0.00000

 Dipole moment (field-independent basis, Debye):
    X=             -0.0000    Y=              0.0000    Z=             -0.0000  Tot=              0.0000
 Quadrupole moment (field-independent basis, Debye-Ang):
   XX=            -20.7807   YY=            -20.7807   ZZ=            -21.7183
   XY=              0.0000   XZ=              0.0000   YZ=              0.0000

 01.8762023\CCSD=-299.9689258\CCSD(T)=-300.2397453\RMSD=1.746e-09\PG=D*
 Normal termination of Gaussian 16 at Sat Jan 14 20:51:35 2023.
