 Gaussian 16, Revision A.03,
 Gaussian 16:  ES64L-G16RevA.03 25-Dec-2016

 ----------------------------------------------------------------------
 #p ROCCSD(T,MaxCyc=250)/cc-pVTZ Guess=Read SCF=(VeryTight,MaxCycle=250
 0,CDIIS,VShift=10)
 ----------------------------------------------------------------------

 ---------
 O2_O2_128
 ---------
 Symbolic Z-matrix:
 Charge =  0 Multiplicity = 1

                         Standard orientation:
 ---------------------------------------------------------------------
 Center     Atomic      Atomic             Coordinates (Angstroms)
 Number     Number       Type             X           Y           Z
 ---------------------------------------------------------------------
      1          8           0        0.000000    0.000000    2.604874
      2          8           0        0.000000    0.000000    3.957254
      3          8           0        0.000000    0.000000   -3.957254
      4          8           0        0.000000    0.000000   -2.604874
 ---------------------------------------------------------------------

 SCF Done:  E(ROHF) =  -298.671565890     A.U. after    6 cycles
 E2 =    -0.3179860361D+01 EUMP2 =    -0.30185142625187D+03
 CCSD(T)
 CCSD(T)= -0.30029333948D+03

 The electronic state is 1-SGG.
 Alpha  occ. eigenvalues --  -20.79352 -20.79352 -20.78314 -20.78314  -1.55901
 Alpha  occ. eigenvalues --   -1.55896  -1.16196  -1.16141  -0.70924  -0.70912
 Alpha  occ. eigenvalues --   -0.66813  -0.66813  -0.66619  -0.66619  -0.31918
 Alpha  occ. eigenvalues --   -0.31918
 Alpha virt. eigenvalues --   -0.23649  -0.23649   0.26175   0.26328   0.67413
 Alpha virt. eigenvalues --    0.68000   0.71662   0.71662   0.71671   0.71671
 Alpha virt. eigenvalues --    0.75206   0.75461   0.81937   0.81937   0.81960

 Mulliken charges and spin densities:
               1          2
     1  O    0.011531   0.000000
     2  O   -0.011531   0.000000
     3  O   -0.011531   0.000000
     4  O    0.011531   0.000000
 Sum of Mulliken charges =  -0.00000   0.00000

 Dipole moment (field-independent basis, Debye):
    X=             -0.0000    Y=              0.0000    Z=              0.0000  Tot=              0.0000
 Quadrupole moment (field-independent basis, Debye-Ang):
   XX=            -20.7396   YY=            -20.7396   ZZ=            -21.4520
   XY=              0.0000   XZ=              0.0000   YZ=              0.0000

 2-0=-301.8514263\MP4SDQ=-323.612664\CCSD=-299.9600439\CCSD(T)=-300.293
 Normal termination of Gaussian 16 at Sun Jan 15 03:49:49 2023.
