 Gaussian 16, Revision A.03,
 Gaussian 16:  ES64L-G16RevA.03 25-Dec-2016

 ---------------------------------------------------------------
 #p ROCCSD(T)/cc-pVTZ Guess=Read SCF=(VeryTight,CDIIS,VShift=10)
 ---------------------------------------------------------------

 --------
 O2_O2_41
 --------
 Symbolic Z-matrix:
 Charge =  0 Multiplicity = 1

                         Standard orientation:
 ---------------------------------------------------------------------
 Center     Atomic      Atomic             Coordinates (Angstroms)
 Number     Number       Type             X           Y           Z
 ---------------------------------------------------------------------
      1          8           0        0.000000    0.000000    1.373078
      2          8           0        0.000000    0.000000    2.725458
      3          8           0        0.000000    0.000000   -2.725458
      4          8           0        0.000000    0.000000   -1.373078
 ---------------------------------------------------------------------

 SCF Done:  E(ROHF) =  -298.741177638     A.U. after    8 cycles
 E2 =    -0.2078100404D+01 EUMP2 =    -0.30081927804167D+03
 CCSD(T)
 CCSD(T)= -0.30022409682D+03

 The electronic state is 1-SGG.
 Alpha  occ. eigenvalues --  -20.81328 -20.81325 -20.77641 -20.77641  -1.56507
 Alpha  occ. eigenvalues --   -1.56296  -1.17203  -1.16004  -0.72498  -0.70248
 Alpha  occ. eigenvalues --   -0.67723  -0.67723  -0.66552  -0.66552  -0.35385
 Alpha  occ. eigenvalues --   -0.35385
 Alpha virt. eigenvalues --   -0.20786  -0.20786   0.23456   0.29483   0.64094
 Alpha virt. eigenvalues --    0.68641   0.68641   0.69511   0.72245   0.72848
 Alpha virt. eigenvalues --    0.72848   0.78449   0.78449   0.87657   0.87657

 Mulliken charges and spin densities:
               1          2
     1  O    0.033728   0.000000
     2  O   -0.033728   0.000000
     3  O   -0.033728   0.000000
     4  O    0.033728   0.000000
 Sum of Mulliken charges =  -0.00000   0.00000

 Dipole moment (field-independent basis, Debye):
    X=             -0.0000    Y=              0.0000    Z=             -0.0000  Tot=              0.0000
 Quadrupole moment (field-independent basis, Debye-Ang):
   XX=            -20.8065   YY=            -20.8065   ZZ=            -21.7791
   XY=              0.0000   XZ=              0.0000   YZ=              0.0000

 .9065563\CCSD=-299.9734303\CCSD(T)=-300.2240968\RMSD=2.321e-09\PG=D*H
 Normal termination of Gaussian 16 at Sat Jan 14 20:35:55 2023.
