 Gaussian 16, Revision A.03,
 Gaussian 16:  ES64L-G16RevA.03 25-Dec-2016

 ----------------------------------------------------------------------
 #p ROCCSD(T,MaxCyc=250)/cc-pVTZ Guess=Read SCF=(VeryTight,MaxCycle=250
 0,CDIIS,VShift=10)
 ----------------------------------------------------------------------

 ---------
 O2_O2_141
 ---------
 Symbolic Z-matrix:
 Charge =  0 Multiplicity = 1

                         Standard orientation:
 ---------------------------------------------------------------------
 Center     Atomic      Atomic             Coordinates (Angstroms)
 Number     Number       Type             X           Y           Z
 ---------------------------------------------------------------------
      1          8           0        0.000000    0.000000    2.788936
      2          8           0        0.000000    0.000000    4.141316
      3          8           0        0.000000    0.000000   -4.141316
      4          8           0        0.000000    0.000000   -2.788936
 ---------------------------------------------------------------------

 SCF Done:  E(ROHF) =  -298.666943962     A.U. after    6 cycles
 E2 =    -0.3335037636D+01 EUMP2 =    -0.30200198159861D+03
 CCSD(T)
 CCSD(T)= -0.30029845044D+03

 The electronic state is 1-SGG.
 Alpha  occ. eigenvalues --  -20.79291 -20.79291 -20.78364 -20.78364  -1.55895
 Alpha  occ. eigenvalues --   -1.55891  -1.16186  -1.16141  -0.70915  -0.70909
 Alpha  occ. eigenvalues --   -0.66792  -0.66792  -0.66628  -0.66628  -0.31683
 Alpha  occ. eigenvalues --   -0.31683
 Alpha virt. eigenvalues --   -0.23875  -0.23875   0.26233   0.26282   0.67625
 Alpha virt. eigenvalues --    0.67811   0.71671   0.71671   0.71673   0.71673
 Alpha virt. eigenvalues --    0.75295   0.75371   0.81949   0.81949   0.81956

 Mulliken charges and spin densities:
               1          2
     1  O    0.010317   0.000000
     2  O   -0.010317   0.000000
     3  O   -0.010317   0.000000
     4  O    0.010317   0.000000
 Sum of Mulliken charges =   0.00000   0.00000

 Dipole moment (field-independent basis, Debye):
    X=             -0.0000    Y=              0.0000    Z=              0.0000  Tot=              0.0000
 Quadrupole moment (field-independent basis, Debye-Ang):
   XX=            -20.7394   YY=            -20.7394   ZZ=            -21.4069
   XY=              0.0000   XZ=              0.0000   YZ=              0.0000

 0=-302.0019816\MP4SDQ=-330.8042534\CCSD=-299.9595465\CCSD(T)=-300.2984
 Normal termination of Gaussian 16 at Sun Jan 15 04:09:54 2023.
