 Gaussian 16, Revision A.03,
 Gaussian 16:  ES64L-G16RevA.03 25-Dec-2016

 ---------------------------------------------------------------
 #p ROCCSD(T)/cc-pVTZ Guess=Read SCF=(VeryTight,CDIIS,VShift=10)
 ---------------------------------------------------------------

 --------
 O2_O2_32
 --------
 Symbolic Z-matrix:
 Charge =  0 Multiplicity = 1

                         Standard orientation:
 ---------------------------------------------------------------------
 Center     Atomic      Atomic             Coordinates (Angstroms)
 Number     Number       Type             X           Y           Z
 ---------------------------------------------------------------------
      1          8           0        0.000000    0.000000    1.245650
      2          8           0        0.000000    0.000000    2.598030
      3          8           0        0.000000    0.000000   -2.598030
      4          8           0        0.000000    0.000000   -1.245650
 ---------------------------------------------------------------------

 SCF Done:  E(ROHF) =  -298.759736869     A.U. after    8 cycles
 E2 =    -0.1948239982D+01 EUMP2 =    -0.30070797685125D+03
 CCSD(T)
 CCSD(T)= -0.30020894417D+03

 The electronic state is 1-SGG.
 Alpha  occ. eigenvalues --  -20.82050 -20.82046 -20.77403 -20.77403  -1.56804
 Alpha  occ. eigenvalues --   -1.56404  -1.17848  -1.15740  -0.73418  -0.69636
 Alpha  occ. eigenvalues --   -0.68111  -0.68111  -0.66487  -0.66487  -0.36268
 Alpha  occ. eigenvalues --   -0.36268
 Alpha virt. eigenvalues --   -0.20091  -0.20091   0.23605   0.30151   0.67714
 Alpha virt. eigenvalues --    0.67714   0.68805   0.70626   0.71771   0.73071
 Alpha virt. eigenvalues --    0.73071   0.78017   0.78017   0.87626   0.88458

 Mulliken charges and spin densities:
               1          2
     1  O    0.043604   0.000000
     2  O   -0.043604   0.000000
     3  O   -0.043604   0.000000
     4  O    0.043604   0.000000
 Sum of Mulliken charges =   0.00000   0.00000

 Dipole moment (field-independent basis, Debye):
    X=             -0.0000    Y=              0.0000    Z=             -0.0000  Tot=              0.0000
 Quadrupole moment (field-independent basis, Debye-Ang):
   XX=            -20.8330   YY=            -20.8330   ZZ=            -21.9050
   XY=              0.0000   XZ=              0.0000   YZ=              0.0000

 .4087335\CCSD=-299.9788196\CCSD(T)=-300.2089442\RMSD=2.875e-09\PG=D*H
 Normal termination of Gaussian 16 at Sat Jan 14 20:22:33 2023.
