 Gaussian 16, Revision A.03,
 Gaussian 16:  ES64L-G16RevA.03 25-Dec-2016

 ---------------------------------------------------------------
 #p ROCCSD(T)/cc-pVTZ Guess=Read SCF=(VeryTight,CDIIS,VShift=10)
 ---------------------------------------------------------------

 -------
 O2_O2_5
 -------
 Symbolic Z-matrix:
 Charge =  0 Multiplicity = 1

                         Standard orientation:
 ---------------------------------------------------------------------
 Center     Atomic      Atomic             Coordinates (Angstroms)
 Number     Number       Type             X           Y           Z
 ---------------------------------------------------------------------
      1          8           0        0.000000    0.000000    0.863368
      2          8           0        0.000000    0.000000    2.215749
      3          8           0        0.000000    0.000000   -2.215749
      4          8           0        0.000000    0.000000   -0.863368
 ---------------------------------------------------------------------

 SCF Done:  E(ROHF) =  -298.820449166     A.U. after   10 cycles
 E2 =    -0.1561591241D+01 EUMP2 =    -0.30038204040646D+03
 CCSD(T)
 CCSD(T)= -0.30014660790D+03

 The electronic state is 1-SGG.
 Alpha  occ. eigenvalues --  -20.85426 -20.85413 -20.74867 -20.74866  -1.59706
 Alpha  occ. eigenvalues --   -1.56088  -1.24813  -1.12138  -0.79571  -0.71330
 Alpha  occ. eigenvalues --   -0.71330  -0.65288  -0.65288  -0.62040  -0.40686
 Alpha  occ. eigenvalues --   -0.40686
 Alpha virt. eigenvalues --   -0.15787  -0.15787   0.23478   0.35024   0.66439
 Alpha virt. eigenvalues --    0.67832   0.67832   0.69027   0.73817   0.73817
 Alpha virt. eigenvalues --    0.79426   0.79426   0.84617   0.85532   0.94913

 Mulliken charges and spin densities:
               1          2
     1  O    0.124692   0.000000
     2  O   -0.124692   0.000000
     3  O   -0.124692   0.000000
     4  O    0.124692   0.000000
 Sum of Mulliken charges =  -0.00000   0.00000

 Dipole moment (field-independent basis, Debye):
    X=             -0.0000    Y=              0.0000    Z=              0.0000  Tot=              0.0000
 Quadrupole moment (field-independent basis, Debye-Ang):
   XX=            -20.8127   YY=            -20.8127   ZZ=            -23.9510
   XY=              0.0000   XZ=              0.0000   YZ=              0.0000

 0.0235561\CCSD=-299.9878699\CCSD(T)=-300.1466079\RMSD=3.392e-09\PG=D*H
 Normal termination of Gaussian 16 at Sat Jan 14 19:43:45 2023.
