 Gaussian 16, Revision A.03,
 Gaussian 16:  ES64L-G16RevA.03 25-Dec-2016

 ----------------------------------------------------------------------
 #p ROCCSD(T,MaxCyc=350)/cc-pVTZ Guess=Read SCF=(VeryTight,MaxCycle=250
 0,CDIIS,VShift=10)
 ----------------------------------------------------------------------

 ---------
 O2_O2_231
 ---------
 Symbolic Z-matrix:
 Charge =  0 Multiplicity = 1

                         Standard orientation:
 ---------------------------------------------------------------------
 Center     Atomic      Atomic             Coordinates (Angstroms)
 Number     Number       Type             X           Y           Z
 ---------------------------------------------------------------------
      1          8           0        0.000000    0.000000    4.063208
      2          8           0        0.000000    0.000000    5.415588
      3          8           0        0.000000    0.000000   -5.415588
      4          8           0        0.000000    0.000000   -4.063208
 ---------------------------------------------------------------------

 SCF Done:  E(ROHF) =  -298.645347384     A.U. after    6 cycles
 E2 =    -0.4402955941D+01 EUMP2 =    -0.30304830332491D+03
 CCSD(T)
 CCSD(T)= -0.30032322155D+03

 The electronic state is 1-SGG.
 Alpha  occ. eigenvalues --  -20.79059 -20.79059 -20.78568 -20.78568  -1.55878
 Alpha  occ. eigenvalues --   -1.55877  -1.16158  -1.16142  -0.70897  -0.70896
 Alpha  occ. eigenvalues --   -0.66726  -0.66726  -0.66664  -0.66664  -0.30590
 Alpha  occ. eigenvalues --   -0.30590
 Alpha virt. eigenvalues --   -0.24944  -0.24944   0.26271   0.26271   0.67736
 Alpha virt. eigenvalues --    0.67739   0.71686   0.71686   0.71686   0.71686
 Alpha virt. eigenvalues --    0.75343   0.75343   0.81963   0.81963   0.81964

 Mulliken charges and spin densities:
               1          2
     1  O    0.005467   0.000000
     2  O   -0.005467   0.000000
     3  O   -0.005467   0.000000
     4  O    0.005467   0.000000
 Sum of Mulliken charges =  -0.00000   0.00000

 Dipole moment (field-independent basis, Debye):
    X=             -0.0000    Y=             -0.0000    Z=              0.0000  Tot=              0.0000
 Quadrupole moment (field-independent basis, Debye-Ang):
   XX=            -20.7394   YY=            -20.7394   ZZ=            -21.1894
   XY=              0.0000   XZ=              0.0000   YZ=              0.0000

 P2-0=-303.0483033\MP4SDQ=-421.7853186\CCSD=-299.9575068\CCSD(T)=-300.3
 Normal termination of Gaussian 16 at Sun Jan 15 08:50:00 2023.
