 Gaussian 16, Revision A.03,
 Gaussian 16:  ES64L-G16RevA.03 25-Dec-2016

 ---------------------------------------------------------------
 #p ROCCSD(T)/cc-pVTZ Guess=Read SCF=(VeryTight,CDIIS,VShift=10)
 ---------------------------------------------------------------

 --------
 O2_O2_20
 --------
 Symbolic Z-matrix:
 Charge =  0 Multiplicity = 1

                         Standard orientation:
 ---------------------------------------------------------------------
 Center     Atomic      Atomic             Coordinates (Angstroms)
 Number     Number       Type             X           Y           Z
 ---------------------------------------------------------------------
      1          8           0        0.000000    0.000000    1.075747
      2          8           0        0.000000    0.000000    2.428127
      3          8           0        0.000000    0.000000   -2.428127
      4          8           0        0.000000    0.000000   -1.075747
 ---------------------------------------------------------------------

 SCF Done:  E(ROHF) =  -298.790528652     A.U. after    8 cycles
 E2 =    -0.1771163646D+01 EUMP2 =    -0.30056169229754D+03
 CCSD(T)
 CCSD(T)= -0.30018620428D+03

 The electronic state is 1-SGG.
 Alpha  occ. eigenvalues --  -20.83314 -20.83308 -20.76780 -20.76780  -1.57472
 Alpha  occ. eigenvalues --   -1.56469  -1.19525  -1.14894  -0.75422  -0.68940
 Alpha  occ. eigenvalues --   -0.68940  -0.67902  -0.66237  -0.66237  -0.37843
 Alpha  occ. eigenvalues --   -0.37843
 Alpha virt. eigenvalues --   -0.18738  -0.18738   0.23738   0.31462   0.67190
 Alpha virt. eigenvalues --    0.67190   0.67881   0.70694   0.73325   0.73325
 Alpha virt. eigenvalues --    0.78007   0.78007   0.81928   0.86913   0.88653

 Mulliken charges and spin densities:
               1          2
     1  O    0.067347   0.000000
     2  O   -0.067347   0.000000
     3  O   -0.067347   0.000000
     4  O    0.067347   0.000000
 Sum of Mulliken charges =   0.00000   0.00000

 Dipole moment (field-independent basis, Debye):
    X=             -0.0000    Y=              0.0000    Z=             -0.0000  Tot=              0.0000
 Quadrupole moment (field-independent basis, Debye-Ang):
   XX=            -20.8626   YY=            -20.8626   ZZ=            -22.3524
   XY=              0.0000   XZ=              0.0000   YZ=              0.0000

 00.0834255\CCSD=-299.9881095\CCSD(T)=-300.1862043\RMSD=9.559e-09\PG=D*
 Normal termination of Gaussian 16 at Sat Jan 14 20:05:44 2023.
