 Gaussian 16, Revision A.03,
 Gaussian 16:  ES64L-G16RevA.03 25-Dec-2016

 ---------------------------------------------------------------
 #p ROCCSD(T)/cc-pVTZ Guess=Read SCF=(VeryTight,CDIIS,VShift=10)
 ---------------------------------------------------------------

 --------
 O2_O2_27
 --------
 Symbolic Z-matrix:
 Charge =  0 Multiplicity = 1

                         Standard orientation:
 ---------------------------------------------------------------------
 Center     Atomic      Atomic             Coordinates (Angstroms)
 Number     Number       Type             X           Y           Z
 ---------------------------------------------------------------------
      1          8           0        0.000000    0.000000    1.174857
      2          8           0        0.000000    0.000000    2.527237
      3          8           0        0.000000    0.000000   -2.527237
      4          8           0        0.000000    0.000000   -1.174857
 ---------------------------------------------------------------------

 SCF Done:  E(ROHF) =  -298.771868470     A.U. after    8 cycles
 E2 =    -0.1874721487D+01 EUMP2 =    -0.30064658995734D+03
 CCSD(T)
 CCSD(T)= -0.30019976491D+03

 The electronic state is 1-SGG.
 Alpha  occ. eigenvalues --  -20.82534 -20.82530 -20.77201 -20.77201  -1.57032
 Alpha  occ. eigenvalues --   -1.56450  -1.18394  -1.15479  -0.74126  -0.69086
 Alpha  occ. eigenvalues --   -0.68400  -0.68400  -0.66415  -0.66415  -0.36861
 Alpha  occ. eigenvalues --   -0.36861
 Alpha virt. eigenvalues --   -0.19601  -0.19601   0.23675   0.30616   0.67360
 Alpha virt. eigenvalues --    0.67360   0.68426   0.71350   0.73178   0.73178
 Alpha virt. eigenvalues --    0.75242   0.77922   0.77922   0.87362   0.88395

 Mulliken charges and spin densities:
               1          2
     1  O    0.051705   0.000000
     2  O   -0.051705   0.000000
     3  O   -0.051705   0.000000
     4  O    0.051705   0.000000
 Sum of Mulliken charges =   0.00000   0.00000

 Dipole moment (field-independent basis, Debye):
    X=             -0.0000    Y=              0.0000    Z=              0.0000  Tot=              0.0000
 Quadrupole moment (field-independent basis, Debye-Ang):
   XX=            -20.8478   YY=            -20.8478   ZZ=            -22.0375
   XY=              0.0000   XZ=              0.0000   YZ=              0.0000

 317586\CCSD=-299.982516\CCSD(T)=-300.1997649\RMSD=4.254e-09\PG=D*H [C*
 Normal termination of Gaussian 16 at Sat Jan 14 20:15:29 2023.
