 Gaussian 16, Revision A.03,
 Gaussian 16:  ES64L-G16RevA.03 25-Dec-2016

 ---------------------------------------------------------------
 #p ROCCSD(T)/cc-pVTZ Guess=Read SCF=(VeryTight,CDIIS,VShift=10)
 ---------------------------------------------------------------

 --------
 O2_O2_71
 --------
 Symbolic Z-matrix:
 Charge =  0 Multiplicity = 1

                         Standard orientation:
 ---------------------------------------------------------------------
 Center     Atomic      Atomic             Coordinates (Angstroms)
 Number     Number       Type             X           Y           Z
 ---------------------------------------------------------------------
      1          8           0        0.000000    0.000000    1.797835
      2          8           0        0.000000    0.000000    3.150215
      3          8           0        0.000000    0.000000   -3.150215
      4          8           0        0.000000    0.000000   -1.797835
 ---------------------------------------------------------------------

 SCF Done:  E(ROHF) =  -298.703236657     A.U. after    7 cycles
 E2 =    -0.2482122158D+01 EUMP2 =    -0.30118535881454D+03
 CCSD(T)
 CCSD(T)= -0.30025988504D+03

 The electronic state is 1-SGG.
 Alpha  occ. eigenvalues --  -20.80008 -20.80006 -20.77991 -20.77990  -1.56050
 Alpha  occ. eigenvalues --   -1.56014  -1.16407  -1.16163  -0.71236  -0.70852
 Alpha  occ. eigenvalues --   -0.67092  -0.67092  -0.66577  -0.66577  -0.33534
 Alpha  occ. eigenvalues --   -0.33534
 Alpha virt. eigenvalues --   -0.22214  -0.22214   0.23985   0.27878   0.58816
 Alpha virt. eigenvalues --    0.71013   0.71054   0.71054   0.72019   0.72019
 Alpha virt. eigenvalues --    0.73197   0.80789   0.80789   0.83128   0.83128

 Mulliken charges and spin densities:
               1          2
     1  O    0.020417  -0.000000
     2  O   -0.020417  -0.000000
     3  O   -0.020417  -0.000000
     4  O    0.020417  -0.000000
 Sum of Mulliken charges =  -0.00000  -0.00000

 Dipole moment (field-independent basis, Debye):
    X=             -0.0000    Y=              0.0000    Z=             -0.0000  Tot=              0.0000
 Quadrupole moment (field-independent basis, Debye-Ang):
   XX=            -20.7544   YY=            -20.7544   ZZ=            -21.6643
   XY=              0.0000   XZ=              0.0000   YZ=              0.0000

 .6344626\CCSD=-299.9645737\CCSD(T)=-300.259885\RMSD=8.230e-09\PG=D*H [
 Normal termination of Gaussian 16 at Sat Jan 14 21:21:03 2023.
