 Gaussian 16, Revision A.03,
 Gaussian 16:  ES64L-G16RevA.03 25-Dec-2016

 ----------------------------------------------------------------------
 #p ROCCSD(T,MaxCyc=350)/cc-pVTZ Guess=Read SCF=(VeryTight,MaxCycle=250
 0,CDIIS,VShift=10)
 ----------------------------------------------------------------------

 ---------
 O2_O2_159
 ---------
 Symbolic Z-matrix:
 Charge =  0 Multiplicity = 1

                         Standard orientation:
 ---------------------------------------------------------------------
 Center     Atomic      Atomic             Coordinates (Angstroms)
 Number     Number       Type             X           Y           Z
 ---------------------------------------------------------------------
      1          8           0        0.000000    0.000000    3.043790
      2          8           0        0.000000    0.000000    4.396170
      3          8           0        0.000000    0.000000   -4.396170
      4          8           0        0.000000    0.000000   -3.043790
 ---------------------------------------------------------------------

 SCF Done:  E(ROHF) =  -298.661366743     A.U. after    6 cycles
 E2 =    -0.3549300751D+01 EUMP2 =    -0.30221066749355D+03
 CCSD(T)
 CCSD(T)= -0.30030470558D+03

 The electronic state is 1-SGG.
 Alpha  occ. eigenvalues --  -20.79223 -20.79223 -20.78422 -20.78422  -1.55889
 Alpha  occ. eigenvalues --   -1.55886  -1.16176  -1.16141  -0.70908  -0.70905
 Alpha  occ. eigenvalues --   -0.66770  -0.66770  -0.66639  -0.66639  -0.31400
 Alpha  occ. eigenvalues --   -0.31400
 Alpha virt. eigenvalues --   -0.24150  -0.24150   0.26258   0.26266   0.67708
 Alpha virt. eigenvalues --    0.67743   0.71676   0.71676   0.71677   0.71677
 Alpha virt. eigenvalues --    0.75330   0.75343   0.81956   0.81956   0.81957

 Mulliken charges and spin densities:
               1          2
     1  O    0.008931   0.000000
     2  O   -0.008931   0.000000
     3  O   -0.008931   0.000000
     4  O    0.008931   0.000000
 Sum of Mulliken charges =  -0.00000   0.00000

 Dipole moment (field-independent basis, Debye):
    X=             -0.0000    Y=              0.0000    Z=             -0.0000  Tot=              0.0000
 Quadrupole moment (field-independent basis, Debye-Ang):
   XX=            -20.7394   YY=            -20.7394   ZZ=            -21.3514
   XY=              0.0000   XZ=              0.0000   YZ=              0.0000

 0=-302.2106675\MP4SDQ=-342.9190624\CCSD=-299.9589772\CCSD(T)=-300.3047
 Normal termination of Gaussian 16 at Sun Jan 15 05:44:52 2023.
