 Gaussian 16, Revision A.03,
 Gaussian 16:  ES64L-G16RevA.03 25-Dec-2016

 ----------------------------------------------------------------------
 #p ROCCSD(T,MaxCyc=350)/cc-pVTZ Guess=Read SCF=(VeryTight,MaxCycle=250
 0,CDIIS,VShift=10)
 ----------------------------------------------------------------------

 ---------
 O2_O2_158
 ---------
 Symbolic Z-matrix:
 Charge =  0 Multiplicity = 1

                         Standard orientation:
 ---------------------------------------------------------------------
 Center     Atomic      Atomic             Coordinates (Angstroms)
 Number     Number       Type             X           Y           Z
 ---------------------------------------------------------------------
      1          8           0        0.000000    0.000000    3.029632
      2          8           0        0.000000    0.000000    4.382012
      3          8           0        0.000000    0.000000   -4.382012
      4          8           0        0.000000    0.000000   -3.029632
 ---------------------------------------------------------------------

 SCF Done:  E(ROHF) =  -298.661654976     A.U. after    6 cycles
 E2 =    -0.3537410339D+01 EUMP2 =    -0.30219906531426D+03
 CCSD(T)
 CCSD(T)= -0.30030438006D+03

 The electronic state is 1-SGG.
 Alpha  occ. eigenvalues --  -20.79227 -20.79226 -20.78419 -20.78419  -1.55889
 Alpha  occ. eigenvalues --   -1.55886  -1.16177  -1.16141  -0.70908  -0.70905
 Alpha  occ. eigenvalues --   -0.66771  -0.66771  -0.66639  -0.66639  -0.31414
 Alpha  occ. eigenvalues --   -0.31414
 Alpha virt. eigenvalues --   -0.24136  -0.24136   0.26257   0.26267   0.67706
 Alpha virt. eigenvalues --    0.67744   0.71676   0.71676   0.71677   0.71677
 Alpha virt. eigenvalues --    0.75329   0.75343   0.81956   0.81956   0.81957

 Mulliken charges and spin densities:
               1          2
     1  O    0.009000   0.000000
     2  O   -0.009000   0.000000
     3  O   -0.009000   0.000000
     4  O    0.009000   0.000000
 Sum of Mulliken charges =  -0.00000   0.00000

 Dipole moment (field-independent basis, Debye):
    X=             -0.0000    Y=             -0.0000    Z=              0.0000  Tot=              0.0000
 Quadrupole moment (field-independent basis, Debye-Ang):
   XX=            -20.7394   YY=            -20.7394   ZZ=            -21.3543
   XY=              0.0000   XZ=              0.0000   YZ=              0.0000

 0=-302.1990653\MP4SDQ=-342.1761533\CCSD=-299.9590059\CCSD(T)=-300.3043
 Normal termination of Gaussian 16 at Sun Jan 15 05:42:10 2023.
