 Gaussian 16, Revision A.03,
 Gaussian 16:  ES64L-G16RevA.03 25-Dec-2016

 ---------------------------------------------------------------
 #p ROCCSD(T)/cc-pVTZ Guess=Read SCF=(VeryTight,CDIIS,VShift=10)
 ---------------------------------------------------------------

 --------
 O2_O2_84
 --------
 Symbolic Z-matrix:
 Charge =  0 Multiplicity = 1

                         Standard orientation:
 ---------------------------------------------------------------------
 Center     Atomic      Atomic             Coordinates (Angstroms)
 Number     Number       Type             X           Y           Z
 ---------------------------------------------------------------------
      1          8           0        0.000000    0.000000    1.981897
      2          8           0        0.000000    0.000000    3.334277
      3          8           0        0.000000    0.000000   -3.334277
      4          8           0        0.000000    0.000000   -1.981897
 ---------------------------------------------------------------------

 SCF Done:  E(ROHF) =  -298.693390828     A.U. after    7 cycles
 E2 =    -0.2646112683D+01 EUMP2 =    -0.30133950351059D+03
 CCSD(T)
 CCSD(T)= -0.30027002195D+03

 The electronic state is 1-SGG.
 Alpha  occ. eigenvalues --  -20.79748 -20.79747 -20.78081 -20.78081  -1.55977
 Alpha  occ. eigenvalues --   -1.55957  -1.16303  -1.16154  -0.71072  -0.70895
 Alpha  occ. eigenvalues --   -0.66976  -0.66976  -0.66581  -0.66581  -0.33033
 Alpha  occ. eigenvalues --   -0.33033
 Alpha virt. eigenvalues --   -0.22629  -0.22629   0.24828   0.27303   0.61737
 Alpha virt. eigenvalues --    0.70752   0.71411   0.71411   0.71813   0.71813
 Alpha virt. eigenvalues --    0.73699   0.81055   0.81424   0.81424   0.82428

 Mulliken charges and spin densities:
               1          2
     1  O    0.017676   0.000000
     2  O   -0.017676   0.000000
     3  O   -0.017676   0.000000
     4  O    0.017676   0.000000
 Sum of Mulliken charges =  -0.00000   0.00000

 Dipole moment (field-independent basis, Debye):
    X=             -0.0000    Y=              0.0000    Z=              0.0000  Tot=              0.0000
 Quadrupole moment (field-independent basis, Debye-Ang):
   XX=            -20.7460   YY=            -20.7460   ZZ=            -21.6216
   XY=              0.0000   XZ=              0.0000   YZ=              0.0000

 7.4208864\CCSD=-299.9629007\CCSD(T)=-300.270022\RMSD=4.825e-09\PG=D*H
 Normal termination of Gaussian 16 at Sat Jan 14 21:39:54 2023.
