 Gaussian 16, Revision A.03,
 Gaussian 16:  ES64L-G16RevA.03 25-Dec-2016

 ----------------------------------------------------------------------
 #p ROCCSD(T,MaxCyc=250)/cc-pVTZ Guess=Read SCF=(VeryTight,MaxCycle=250
 0,CDIIS,VShift=10)
 ----------------------------------------------------------------------

 ---------
 O2_O2_119
 ---------
 Symbolic Z-matrix:
 Charge =  0 Multiplicity = 1

                         Standard orientation:
 ---------------------------------------------------------------------
 Center     Atomic      Atomic             Coordinates (Angstroms)
 Number     Number       Type             X           Y           Z
 ---------------------------------------------------------------------
      1          8           0        0.000000    0.000000    2.477447
      2          8           0        0.000000    0.000000    3.829827
      3          8           0        0.000000    0.000000   -3.829827
      4          8           0        0.000000    0.000000   -2.477447
 ---------------------------------------------------------------------

 SCF Done:  E(ROHF) =  -298.675128575     A.U. after    7 cycles
 E2 =    -0.3072074726D+01 EUMP2 =    -0.30174720330157D+03
 CCSD(T)
 CCSD(T)= -0.30028944209D+03

 The electronic state is 1-SGG.
 Alpha  occ. eigenvalues --  -20.79403 -20.79402 -20.78275 -20.78275  -1.55908
 Alpha  occ. eigenvalues --   -1.55901  -1.16205  -1.16141  -0.70933  -0.70913
 Alpha  occ. eigenvalues --   -0.66832  -0.66832  -0.66611  -0.66611  -0.32099
 Alpha  occ. eigenvalues --   -0.32099
 Alpha virt. eigenvalues --   -0.23475  -0.23475   0.26088   0.26400   0.67076
 Alpha virt. eigenvalues --    0.68290   0.71652   0.71652   0.71673   0.71673
 Alpha virt. eigenvalues --    0.75068   0.75627   0.81918   0.81918   0.81972

 Mulliken charges and spin densities:
               1          2
     1  O    0.012500  -0.000000
     2  O   -0.012500  -0.000000
     3  O   -0.012500  -0.000000
     4  O    0.012500  -0.000000
 Sum of Mulliken charges =  -0.00000  -0.00000

 Dipole moment (field-independent basis, Debye):
    X=             -0.0000    Y=             -0.0000    Z=             -0.0000  Tot=              0.0000
 Quadrupole moment (field-independent basis, Debye-Ang):
   XX=            -20.7398   YY=            -20.7398   ZZ=            -21.4857
   XY=              0.0000   XZ=              0.0000   YZ=              0.0000

 2-0=-301.7472033\MP4SDQ=-319.3341569\CCSD=-299.9604456\CCSD(T)=-300.28
 Normal termination of Gaussian 16 at Sun Jan 15 03:35:16 2023.
