 Gaussian 16, Revision A.03,
 Gaussian 16:  ES64L-G16RevA.03 25-Dec-2016

 ---------------------------------------------------------------
 #p ROCCSD(T)/cc-pVTZ Guess=Read SCF=(VeryTight,CDIIS,VShift=10)
 ---------------------------------------------------------------

 --------
 O2_O2_30
 --------
 Symbolic Z-matrix:
 Charge =  0 Multiplicity = 1

                         Standard orientation:
 ---------------------------------------------------------------------
 Center     Atomic      Atomic             Coordinates (Angstroms)
 Number     Number       Type             X           Y           Z
 ---------------------------------------------------------------------
      1          8           0        0.000000    0.000000    1.217333
      2          8           0        0.000000    0.000000    2.569713
      3          8           0        0.000000    0.000000   -2.569713
      4          8           0        0.000000    0.000000   -1.217333
 ---------------------------------------------------------------------

 SCF Done:  E(ROHF) =  -298.764439773     A.U. after    8 cycles
 E2 =    -0.1918922747D+01 EUMP2 =    -0.30068336251984D+03
 CCSD(T)
 CCSD(T)= -0.30020532766D+03

 The electronic state is 1-SGG.
 Alpha  occ. eigenvalues --  -20.82236 -20.82232 -20.77330 -20.77329  -1.56889
 Alpha  occ. eigenvalues --   -1.56425  -1.18046  -1.15648  -0.73682  -0.69439
 Alpha  occ. eigenvalues --   -0.68219  -0.68219  -0.66463  -0.66463  -0.36495
 Alpha  occ. eigenvalues --   -0.36495
 Alpha virt. eigenvalues --   -0.19906  -0.19906   0.23635   0.30327   0.67553
 Alpha virt. eigenvalues --    0.67553   0.68652   0.71561   0.72458   0.73115
 Alpha virt. eigenvalues --    0.73115   0.77965   0.77965   0.87525   0.88428

 Mulliken charges and spin densities:
               1          2
     1  O    0.046571   0.000000
     2  O   -0.046571   0.000000
     3  O   -0.046571   0.000000
     4  O    0.046571   0.000000
 Sum of Mulliken charges =  -0.00000   0.00000

 Dipole moment (field-independent basis, Debye):
    X=             -0.0000    Y=              0.0000    Z=             -0.0000  Tot=              0.0000
 Quadrupole moment (field-independent basis, Debye-Ang):
   XX=            -20.8391   YY=            -20.8391   ZZ=            -21.9509
   XY=              0.0000   XZ=              0.0000   YZ=              0.0000

 00.3300978\CCSD=-299.9802441\CCSD(T)=-300.2053277\RMSD=3.251e-09\PG=D*
 Normal termination of Gaussian 16 at Sat Jan 14 20:19:51 2023.
