 Gaussian 16, Revision A.03,
 Gaussian 16:  ES64L-G16RevA.03 25-Dec-2016

 ----------------------------------------------------------------------
 #p ROCCSD(T,MaxCyc=250)/cc-pVTZ Guess=Read SCF=(VeryTight,MaxCycle=250
 0,CDIIS,VShift=10)
 ----------------------------------------------------------------------

 ---------
 O2_O2_118
 ---------
 Symbolic Z-matrix:
 Charge =  0 Multiplicity = 1

                         Standard orientation:
 ---------------------------------------------------------------------
 Center     Atomic      Atomic             Coordinates (Angstroms)
 Number     Number       Type             X           Y           Z
 ---------------------------------------------------------------------
      1          8           0        0.000000    0.000000    2.463288
      2          8           0        0.000000    0.000000    3.815668
      3          8           0        0.000000    0.000000   -3.815668
      4          8           0        0.000000    0.000000   -2.463288
 ---------------------------------------------------------------------

 SCF Done:  E(ROHF) =  -298.675545619     A.U. after    7 cycles
 E2 =    -0.3060073287D+01 EUMP2 =    -0.30173561890665D+03
 CCSD(T)
 CCSD(T)= -0.30028899177D+03

 The electronic state is 1-SGG.
 Alpha  occ. eigenvalues --  -20.79409 -20.79409 -20.78270 -20.78270  -1.55908
 Alpha  occ. eigenvalues --   -1.55901  -1.16206  -1.16142  -0.70935  -0.70913
 Alpha  occ. eigenvalues --   -0.66834  -0.66834  -0.66610  -0.66610  -0.32121
 Alpha  occ. eigenvalues --   -0.32121
 Alpha virt. eigenvalues --   -0.23455  -0.23455   0.26075   0.26411   0.67023
 Alpha virt. eigenvalues --    0.68334   0.71650   0.71650   0.71673   0.71673
 Alpha virt. eigenvalues --    0.75047   0.75655   0.81915   0.81915   0.81975

 Mulliken charges and spin densities:
               1          2
     1  O    0.012615  -0.000000
     2  O   -0.012615  -0.000000
     3  O   -0.012615  -0.000000
     4  O    0.012615  -0.000000
 Sum of Mulliken charges =   0.00000  -0.00000

 Dipole moment (field-independent basis, Debye):
    X=             -0.0000    Y=             -0.0000    Z=             -0.0000  Tot=              0.0000
 Quadrupole moment (field-independent basis, Debye-Ang):
   XX=            -20.7398   YY=            -20.7398   ZZ=            -21.4895
   XY=              0.0000   XZ=              0.0000   YZ=              0.0000

 2-0=-301.7356189\MP4SDQ=-318.8922096\CCSD=-299.9604955\CCSD(T)=-300.28
 Normal termination of Gaussian 16 at Sun Jan 15 03:33:38 2023.
