 Gaussian 16, Revision A.03,
 Gaussian 16:  ES64L-G16RevA.03 25-Dec-2016

 ---------------------------------------------------------------
 #p ROCCSD(T)/cc-pVTZ Guess=Read SCF=(VeryTight,CDIIS,VShift=10)
 ---------------------------------------------------------------

 --------
 O2_O2_96
 --------
 Symbolic Z-matrix:
 Charge =  0 Multiplicity = 1

                         Standard orientation:
 ---------------------------------------------------------------------
 Center     Atomic      Atomic             Coordinates (Angstroms)
 Number     Number       Type             X           Y           Z
 ---------------------------------------------------------------------
      1          8           0        0.000000    0.000000    2.151800
      2          8           0        0.000000    0.000000    3.504180
      3          8           0        0.000000    0.000000   -3.504180
      4          8           0        0.000000    0.000000   -2.151800
 ---------------------------------------------------------------------

 SCF Done:  E(ROHF) =  -298.686100463     A.U. after    7 cycles
 E2 =    -0.2793981350D+01 EUMP2 =    -0.30148008181274D+03
 CCSD(T)
 CCSD(T)= -0.30027767381D+03

 The electronic state is 1-SGG.
 Alpha  occ. eigenvalues --  -20.79590 -20.79589 -20.78155 -20.78154  -1.55940
 Alpha  occ. eigenvalues --   -1.55927  -1.16252  -1.16147  -0.70995  -0.70909
 Alpha  occ. eigenvalues --   -0.66907  -0.66907  -0.66590  -0.66590  -0.32660
 Alpha  occ. eigenvalues --   -0.32660
 Alpha virt. eigenvalues --   -0.22956  -0.22956   0.25479   0.26867   0.64484
 Alpha virt. eigenvalues --    0.69917   0.71560   0.71560   0.71720   0.71720
 Alpha virt. eigenvalues --    0.74257   0.77558   0.81727   0.81727   0.82135

 Mulliken charges and spin densities:
               1          2
     1  O    0.015599   0.000000
     2  O   -0.015599   0.000000
     3  O   -0.015599   0.000000
     4  O    0.015599   0.000000
 Sum of Mulliken charges =  -0.00000   0.00000

 Dipole moment (field-independent basis, Debye):
    X=             -0.0000    Y=              0.0000    Z=              0.0000  Tot=              0.0000
 Quadrupole moment (field-independent basis, Debye-Ang):
   XX=            -20.7421   YY=            -20.7421   ZZ=            -21.5766
   XY=              0.0000   XZ=              0.0000   YZ=              0.0000

 10.7292261\CCSD=-299.9618285\CCSD(T)=-300.2776738\RMSD=2.797e-09\PG=D*
 Normal termination of Gaussian 16 at Sat Jan 14 21:58:42 2023.
