 Gaussian 16, Revision A.03,
 Gaussian 16:  ES64L-G16RevA.03 25-Dec-2016

 ----------------------------------------------------------------------
 #p ROCCSD(T,MaxCyc=350)/cc-pVTZ Guess=Read SCF=(VeryTight,MaxCycle=250
 0,CDIIS,VShift=10)
 ----------------------------------------------------------------------

 ---------
 O2_O2_235
 ---------
 Symbolic Z-matrix:
 Charge =  0 Multiplicity = 1

                         Standard orientation:
 ---------------------------------------------------------------------
 Center     Atomic      Atomic             Coordinates (Angstroms)
 Number     Number       Type             X           Y           Z
 ---------------------------------------------------------------------
      1          8           0        0.000000    0.000000    4.119843
      2          8           0        0.000000    0.000000    5.472223
      3          8           0        0.000000    0.000000   -5.472223
      4          8           0        0.000000    0.000000   -4.119843
 ---------------------------------------------------------------------

 SCF Done:  E(ROHF) =  -298.644665144     A.U. after    6 cycles
 E2 =    -0.4450276049D+01 EUMP2 =    -0.30309494119260D+03
 CCSD(T)
 CCSD(T)= -0.30032402902D+03

 The electronic state is 1-SGG.
 Alpha  occ. eigenvalues --  -20.79053 -20.79053 -20.78574 -20.78574  -1.55877
 Alpha  occ. eigenvalues --   -1.55877  -1.16157  -1.16142  -0.70897  -0.70896
 Alpha  occ. eigenvalues --   -0.66724  -0.66724  -0.66665  -0.66665  -0.30556
 Alpha  occ. eigenvalues --   -0.30556
 Alpha virt. eigenvalues --   -0.24978  -0.24978   0.26271   0.26271   0.67736
 Alpha virt. eigenvalues --    0.67740   0.71686   0.71686   0.71686   0.71686
 Alpha virt. eigenvalues --    0.75343   0.75343   0.81964   0.81964   0.81964

 Mulliken charges and spin densities:
               1          2
     1  O    0.005337  -0.000000
     2  O   -0.005337  -0.000000
     3  O   -0.005337  -0.000000
     4  O    0.005337  -0.000000
 Sum of Mulliken charges =  -0.00000  -0.00000

 Dipole moment (field-independent basis, Debye):
    X=             -0.0000    Y=             -0.0000    Z=             -0.0000  Tot=              0.0000
 Quadrupole moment (field-independent basis, Debye-Ang):
   XX=            -20.7394   YY=            -20.7394   ZZ=            -21.1825
   XY=              0.0000   XZ=              0.0000   YZ=              0.0000

 P2-0=-303.0949412\MP4SDQ=-427.820264\CCSD=-299.9574497\CCSD(T)=-300.32
 Normal termination of Gaussian 16 at Sun Jan 15 08:58:04 2023.
