 Gaussian 16, Revision A.03,
 Gaussian 16:  ES64L-G16RevA.03 25-Dec-2016

 ----------------------------------------------------------------------
 #p ROCCSD(T,MaxCyc=350)/cc-pVTZ Guess=Read SCF=(VeryTight,MaxCycle=250
 0,CDIIS,VShift=10)
 ----------------------------------------------------------------------

 ---------
 O2_O2_224
 ---------
 Symbolic Z-matrix:
 Charge =  0 Multiplicity = 1

                         Standard orientation:
 ---------------------------------------------------------------------
 Center     Atomic      Atomic             Coordinates (Angstroms)
 Number     Number       Type             X           Y           Z
 ---------------------------------------------------------------------
      1          8           0        0.000000    0.000000    3.964098
      2          8           0        0.000000    0.000000    5.316478
      3          8           0        0.000000    0.000000   -5.316478
      4          8           0        0.000000    0.000000   -3.964098
 ---------------------------------------------------------------------

 SCF Done:  E(ROHF) =  -298.646582890     A.U. after    6 cycles
 E2 =    -0.4320125058D+01 EUMP2 =    -0.30296670794781D+03
 CCSD(T)
 CCSD(T)= -0.30032176478D+03

 The electronic state is 1-SGG.
 Alpha  occ. eigenvalues --  -20.79070 -20.79070 -20.78558 -20.78558  -1.55878
 Alpha  occ. eigenvalues --   -1.55877  -1.16159  -1.16142  -0.70898  -0.70897
 Alpha  occ. eigenvalues --   -0.66728  -0.66728  -0.66662  -0.66662  -0.30653
 Alpha  occ. eigenvalues --   -0.30653
 Alpha virt. eigenvalues --   -0.24882  -0.24882   0.26270   0.26270   0.67735
 Alpha virt. eigenvalues --    0.67739   0.71685   0.71685   0.71686   0.71686
 Alpha virt. eigenvalues --    0.75342   0.75343   0.81963   0.81963   0.81963

 Mulliken charges and spin densities:
               1          2
     1  O    0.005705   0.000000
     2  O   -0.005705   0.000000
     3  O   -0.005705   0.000000
     4  O    0.005705   0.000000
 Sum of Mulliken charges =  -0.00000   0.00000

 Dipole moment (field-independent basis, Debye):
    X=             -0.0000    Y=              0.0000    Z=              0.0000  Tot=              0.0000
 Quadrupole moment (field-independent basis, Debye-Ang):
   XX=            -20.7394   YY=            -20.7394   ZZ=            -21.2020
   XY=              0.0000   XZ=              0.0000   YZ=              0.0000

 2-0=-302.9667079\MP4SDQ=-411.6826786\CCSD=-299.9576121\CCSD(T)=-300.32
 Normal termination of Gaussian 16 at Sun Jan 15 08:36:56 2023.
