 Gaussian 16, Revision A.03,
 Gaussian 16:  ES64L-G16RevA.03 25-Dec-2016

 ---------------------------------------------------------------
 #p ROCCSD(T)/cc-pVTZ Guess=Read SCF=(VeryTight,CDIIS,VShift=10)
 ---------------------------------------------------------------

 --------
 O2_O2_50
 --------
 Symbolic Z-matrix:
 Charge =  0 Multiplicity = 1

                         Standard orientation:
 ---------------------------------------------------------------------
 Center     Atomic      Atomic             Coordinates (Angstroms)
 Number     Number       Type             X           Y           Z
 ---------------------------------------------------------------------
      1          8           0        0.000000    0.000000    1.500504
      2          8           0        0.000000    0.000000    2.852885
      3          8           0        0.000000    0.000000   -2.852885
      4          8           0        0.000000    0.000000   -1.500504
 ---------------------------------------------------------------------

 SCF Done:  E(ROHF) =  -298.726564683     A.U. after    8 cycles
 E2 =    -0.2203918538D+01 EUMP2 =    -0.30093048322099D+03
 CCSD(T)
 CCSD(T)= -0.30023714053D+03

 The electronic state is 1-SGG.
 Alpha  occ. eigenvalues --  -20.80782 -20.80779 -20.77788 -20.77788  -1.56306
 Alpha  occ. eigenvalues --   -1.56189  -1.16820  -1.16116  -0.71906  -0.70575
 Alpha  occ. eigenvalues --   -0.67454  -0.67454  -0.66572  -0.66572  -0.34686
 Alpha  occ. eigenvalues --   -0.34686
 Alpha virt. eigenvalues --   -0.21319  -0.21319   0.23361   0.28940   0.59985
 Alpha virt. eigenvalues --    0.69616   0.69616   0.70186   0.72576   0.72588
 Alpha virt. eigenvalues --    0.72588   0.79122   0.79122   0.85802   0.85802

 Mulliken charges and spin densities:
               1          2
     1  O    0.027644   0.000000
     2  O   -0.027644   0.000000
     3  O   -0.027644   0.000000
     4  O    0.027644   0.000000
 Sum of Mulliken charges =  -0.00000   0.00000

 Dipole moment (field-independent basis, Debye):
    X=             -0.0000    Y=             -0.0000    Z=              0.0000  Tot=              0.0000
 Quadrupole moment (field-independent basis, Debye-Ang):
   XX=            -20.7847   YY=            -20.7847   ZZ=            -21.7257
   XY=              0.0000   XZ=              0.0000   YZ=              0.0000

 01.6679846\CCSD=-299.9696026\CCSD(T)=-300.2371405\RMSD=1.872e-09\PG=D*
 Normal termination of Gaussian 16 at Sat Jan 14 20:48:56 2023.
