 Gaussian 16, Revision A.03,
 Gaussian 16:  ES64L-G16RevA.03 25-Dec-2016

 ---------------------------------------------------------------
 #p ROCCSD(T)/cc-pVTZ Guess=Read SCF=(VeryTight,CDIIS,VShift=10)
 ---------------------------------------------------------------

 -------
 O2_O2_8
 -------
 Symbolic Z-matrix:
 Charge =  0 Multiplicity = 1

                         Standard orientation:
 ---------------------------------------------------------------------
 Center     Atomic      Atomic             Coordinates (Angstroms)
 Number     Number       Type             X           Y           Z
 ---------------------------------------------------------------------
      1          8           0        0.000000    0.000000    0.905844
      2          8           0        0.000000    0.000000    2.258224
      3          8           0        0.000000    0.000000   -2.258224
      4          8           0        0.000000    0.000000   -0.905844
 ---------------------------------------------------------------------

 SCF Done:  E(ROHF) =  -298.818337134     A.U. after   10 cycles
 E2 =    -0.1600020936D+01 EUMP2 =    -0.30041835807077D+03
 CCSD(T)
 CCSD(T)= -0.30015747409D+03

 The electronic state is 1-SGG.
 Alpha  occ. eigenvalues --  -20.84938 -20.84927 -20.75407 -20.75407  -1.58982
 Alpha  occ. eigenvalues --   -1.56232  -1.23289  -1.12908  -0.78604  -0.70611
 Alpha  occ. eigenvalues --   -0.70611  -0.65564  -0.65564  -0.63779  -0.40034
 Alpha  occ. eigenvalues --   -0.40034
 Alpha virt. eigenvalues --   -0.16531  -0.16531   0.23623   0.33989   0.66771
 Alpha virt. eigenvalues --    0.67696   0.67696   0.69414   0.73680   0.73680
 Alpha virt. eigenvalues --    0.78976   0.78976   0.85092   0.85862   0.94524

 Mulliken charges and spin densities:
               1          2
     1  O    0.109355   0.000000
     2  O   -0.109355   0.000000
     3  O   -0.109355   0.000000
     4  O    0.109355   0.000000
 Sum of Mulliken charges =  -0.00000   0.00000

 Dipole moment (field-independent basis, Debye):
    X=             -0.0000    Y=              0.0000    Z=              0.0000  Tot=              0.0000
 Quadrupole moment (field-independent basis, Debye-Ang):
   XX=            -20.8379   YY=            -20.8379   ZZ=            -23.4880
   XY=              0.0000   XZ=              0.0000   YZ=              0.0000

 0.0191033\CCSD=-299.9915902\CCSD(T)=-300.1574741\RMSD=1.481e-09\PG=D*H
 Normal termination of Gaussian 16 at Sat Jan 14 19:47:49 2023.
