 Gaussian 16, Revision A.03,
 Gaussian 16:  ES64L-G16RevA.03 25-Dec-2016

 ---------------------------------------------------------------
 #p ROCCSD(T)/cc-pVTZ Guess=Read SCF=(VeryTight,CDIIS,VShift=10)
 ---------------------------------------------------------------

 --------
 O2_O2_11
 --------
 Symbolic Z-matrix:
 Charge =  0 Multiplicity = 1

                         Standard orientation:
 ---------------------------------------------------------------------
 Center     Atomic      Atomic             Coordinates (Angstroms)
 Number     Number       Type             X           Y           Z
 ---------------------------------------------------------------------
      1          8           0        0.000000    0.000000    0.948320
      2          8           0        0.000000    0.000000    2.300700
      3          8           0        0.000000    0.000000   -2.300700
      4          8           0        0.000000    0.000000   -0.948320
 ---------------------------------------------------------------------

 SCF Done:  E(ROHF) =  -298.813284840     A.U. after    9 cycles
 E2 =    -0.1640941148D+01 EUMP2 =    -0.30045422598866D+03
 CCSD(T)
 CCSD(T)= -0.30016614898D+03

 The electronic state is 1-SGG.
 Alpha  occ. eigenvalues --  -20.84492 -20.84483 -20.75856 -20.75855  -1.58450
 Alpha  occ. eigenvalues --   -1.56337  -1.22041  -1.13555  -0.77697  -0.70051
 Alpha  occ. eigenvalues --   -0.70051  -0.65791  -0.65791  -0.65170  -0.39421
 Alpha  occ. eigenvalues --   -0.39421
 Alpha virt. eigenvalues --   -0.17191  -0.17191   0.23702   0.33160   0.67077
 Alpha virt. eigenvalues --    0.67525   0.67525   0.69752   0.73568   0.73568
 Alpha virt. eigenvalues --    0.78616   0.78616   0.85334   0.86164   0.93204

 Mulliken charges and spin densities:
               1          2
     1  O    0.096440  -0.000000
     2  O   -0.096440  -0.000000
     3  O   -0.096440  -0.000000
     4  O    0.096440  -0.000000
 Sum of Mulliken charges =  -0.00000  -0.00000

 Dipole moment (field-independent basis, Debye):
    X=             -0.0000    Y=             -0.0000    Z=              0.0000  Tot=              0.0000
 Quadrupole moment (field-independent basis, Debye-Ang):
   XX=            -20.8536   YY=            -20.8536   ZZ=            -23.1090
   XY=              0.0000   XZ=              0.0000   YZ=              0.0000

 198995\CCSD=-299.9926264\CCSD(T)=-300.166149\RMSD=9.253e-09\PG=D*H [C*
 Normal termination of Gaussian 16 at Sat Jan 14 19:51:59 2023.
