 Gaussian 16, Revision A.03,
 Gaussian 16:  ES64L-G16RevA.03 25-Dec-2016

 ----------------------------------------------------------------------
 #p ROCCSD(T,MaxCyc=250)/cc-pVTZ Guess=Read SCF=(VeryTight,MaxCycle=250
 0,CDIIS,VShift=10)
 ----------------------------------------------------------------------

 ---------
 O2_O2_151
 ---------
 Symbolic Z-matrix:
 Charge =  0 Multiplicity = 1

                         Standard orientation:
 ---------------------------------------------------------------------
 Center     Atomic      Atomic             Coordinates (Angstroms)
 Number     Number       Type             X           Y           Z
 ---------------------------------------------------------------------
      1          8           0        0.000000    0.000000    2.930522
      2          8           0        0.000000    0.000000    4.282902
      3          8           0        0.000000    0.000000   -4.282902
      4          8           0        0.000000    0.000000   -2.930522
 ---------------------------------------------------------------------

 SCF Done:  E(ROHF) =  -298.663740557     A.U. after    6 cycles
 E2 =    -0.3454138030D+01 EUMP2 =    -0.30211787858706D+03
 CCSD(T)
 CCSD(T)= -0.30030203128D+03

 The electronic state is 1-SGG.
 Alpha  occ. eigenvalues --  -20.79251 -20.79251 -20.78398 -20.78398  -1.55891
 Alpha  occ. eigenvalues --   -1.55888  -1.16180  -1.16141  -0.70911  -0.70907
 Alpha  occ. eigenvalues --   -0.66779  -0.66779  -0.66635  -0.66635  -0.31520
 Alpha  occ. eigenvalues --   -0.31520
 Alpha virt. eigenvalues --   -0.24033  -0.24033   0.26251   0.26270   0.67686
 Alpha virt. eigenvalues --    0.67759   0.71674   0.71674   0.71675   0.71675
 Alpha virt. eigenvalues --    0.75321   0.75349   0.81954   0.81954   0.81956

 Mulliken charges and spin densities:
               1          2
     1  O    0.009510   0.000000
     2  O   -0.009510   0.000000
     3  O   -0.009510   0.000000
     4  O    0.009510   0.000000
 Sum of Mulliken charges =   0.00000   0.00000

 Dipole moment (field-independent basis, Debye):
    X=             -0.0000    Y=              0.0000    Z=             -0.0000  Tot=              0.0000
 Quadrupole moment (field-independent basis, Debye-Ang):
   XX=            -20.7394   YY=            -20.7394   ZZ=            -21.3751
   XY=              0.0000   XZ=              0.0000   YZ=              0.0000

 2-0=-302.1178786\MP4SDQ=-337.2104389\CCSD=-299.9592156\CCSD(T)=-300.30
 Normal termination of Gaussian 16 at Sun Jan 15 04:25:56 2023.
