 Gaussian 16, Revision A.03,
 Gaussian 16:  ES64L-G16RevA.03 25-Dec-2016

 ----------------------------------------------------------------------
 #p ROCCSD(T,MaxCyc=350)/cc-pVTZ Guess=Read SCF=(VeryTight,MaxCycle=250
 0,CDIIS,VShift=10)
 ----------------------------------------------------------------------

 ---------
 O2_O2_249
 ---------
 Symbolic Z-matrix:
 Charge =  0 Multiplicity = 1

                         Standard orientation:
 ---------------------------------------------------------------------
 Center     Atomic      Atomic             Coordinates (Angstroms)
 Number     Number       Type             X           Y           Z
 ---------------------------------------------------------------------
      1          8           0        0.000000    0.000000    4.318063
      2          8           0        0.000000    0.000000    5.670443
      3          8           0        0.000000    0.000000   -5.670443
      4          8           0        0.000000    0.000000   -4.318063
 ---------------------------------------------------------------------

 SCF Done:  E(ROHF) =  -298.642403317     A.U. after    6 cycles
 E2 =    -0.4615832187D+01 EUMP2 =    -0.30325823550326D+03
 CCSD(T)
 CCSD(T)= -0.30032670908D+03

 The electronic state is 1-SGG.
 Alpha  occ. eigenvalues --  -20.79034 -20.79034 -20.78591 -20.78591  -1.55876
 Alpha  occ. eigenvalues --   -1.55876  -1.16156  -1.16142  -0.70896  -0.70895
 Alpha  occ. eigenvalues --   -0.66720  -0.66720  -0.66667  -0.66667  -0.30442
 Alpha  occ. eigenvalues --   -0.30442
 Alpha virt. eigenvalues --   -0.25090  -0.25090   0.26272   0.26272   0.67738
 Alpha virt. eigenvalues --    0.67740   0.71687   0.71687   0.71687   0.71687
 Alpha virt. eigenvalues --    0.75343   0.75344   0.81964   0.81964   0.81964

 Mulliken charges and spin densities:
               1          2
     1  O    0.004917   0.000000
     2  O   -0.004917   0.000000
     3  O   -0.004917   0.000000
     4  O    0.004917   0.000000
 Sum of Mulliken charges =  -0.00000   0.00000

 Dipole moment (field-independent basis, Debye):
    X=             -0.0000    Y=              0.0000    Z=             -0.0000  Tot=              0.0000
 Quadrupole moment (field-independent basis, Debye-Ang):
   XX=            -20.7394   YY=            -20.7394   ZZ=            -21.1594
   XY=              0.0000   XZ=              0.0000   YZ=              0.0000

 P2-0=-303.2582355\MP4SDQ=-450.4928726\CCSD=-299.9572597\CCSD(T)=-300.3
 Normal termination of Gaussian 16 at Sun Jan 15 09:24:48 2023.
