 Gaussian 16, Revision A.03,
 Gaussian 16:  ES64L-G16RevA.03 25-Dec-2016

 ----------------------------------------------------------------------
 #p ROCCSD(T,MaxCyc=250)/cc-pVTZ Guess=Read SCF=(VeryTight,MaxCycle=250
 0,CDIIS,VShift=10)
 ----------------------------------------------------------------------

 ---------
 O2_O2_117
 ---------
 Symbolic Z-matrix:
 Charge =  0 Multiplicity = 1

                         Standard orientation:
 ---------------------------------------------------------------------
 Center     Atomic      Atomic             Coordinates (Angstroms)
 Number     Number       Type             X           Y           Z
 ---------------------------------------------------------------------
      1          8           0        0.000000    0.000000    2.449130
      2          8           0        0.000000    0.000000    3.801510
      3          8           0        0.000000    0.000000   -3.801510
      4          8           0        0.000000    0.000000   -2.449130
 ---------------------------------------------------------------------

 SCF Done:  E(ROHF) =  -298.675967220     A.U. after    7 cycles
 E2 =    -0.3048066424D+01 EUMP2 =    -0.30172403364462D+03
 CCSD(T)
 CCSD(T)= -0.30028853298D+03

 The electronic state is 1-SGG.
 Alpha  occ. eigenvalues --  -20.79415 -20.79415 -20.78266 -20.78266  -1.55909
 Alpha  occ. eigenvalues --   -1.55902  -1.16208  -1.16142  -0.70936  -0.70913
 Alpha  occ. eigenvalues --   -0.66837  -0.66837  -0.66609  -0.66609  -0.32142
 Alpha  occ. eigenvalues --   -0.32142
 Alpha virt. eigenvalues --   -0.23435  -0.23435   0.26061   0.26423   0.66967
 Alpha virt. eigenvalues --    0.68381   0.71648   0.71648   0.71674   0.71674
 Alpha virt. eigenvalues --    0.75025   0.75686   0.81911   0.81911   0.81977

 Mulliken charges and spin densities:
               1          2
     1  O    0.012732   0.000000
     2  O   -0.012732   0.000000
     3  O   -0.012732   0.000000
     4  O    0.012732   0.000000
 Sum of Mulliken charges =  -0.00000   0.00000

 Dipole moment (field-independent basis, Debye):
    X=             -0.0000    Y=              0.0000    Z=              0.0000  Tot=              0.0000
 Quadrupole moment (field-independent basis, Debye-Ang):
   XX=            -20.7399   YY=            -20.7399   ZZ=            -21.4934
   XY=              0.0000   XZ=              0.0000   YZ=              0.0000

 2-0=-301.7240336\MP4SDQ=-318.4567863\CCSD=-299.9605443\CCSD(T)=-300.28
 Normal termination of Gaussian 16 at Sun Jan 15 03:32:15 2023.
