 Gaussian 16, Revision A.03,
 Gaussian 16:  ES64L-G16RevA.03 25-Dec-2016

 ---------------------------------------------------------------
 #p ROCCSD(T)/cc-pVTZ Guess=Read SCF=(VeryTight,CDIIS,VShift=10)
 ---------------------------------------------------------------

 --------
 O2_O2_10
 --------
 Symbolic Z-matrix:
 Charge =  0 Multiplicity = 1

                         Standard orientation:
 ---------------------------------------------------------------------
 Center     Atomic      Atomic             Coordinates (Angstroms)
 Number     Number       Type             X           Y           Z
 ---------------------------------------------------------------------
      1          8           0        0.000000    0.000000    0.934161
      2          8           0        0.000000    0.000000    2.286542
      3          8           0        0.000000    0.000000   -2.286542
      4          8           0        0.000000    0.000000   -0.934161
 ---------------------------------------------------------------------

 SCF Done:  E(ROHF) =  -298.815216054     A.U. after   10 cycles
 E2 =    -0.1627083771D+01 EUMP2 =    -0.30044229982509D+03
 CCSD(T)
 CCSD(T)= -0.30016344195D+03

 The electronic state is 1-SGG.
 Alpha  occ. eigenvalues --  -20.84637 -20.84627 -20.75716 -20.75715  -1.58610
 Alpha  occ. eigenvalues --   -1.56306  -1.22429  -1.13352  -0.77992  -0.70223
 Alpha  occ. eigenvalues --   -0.70223  -0.65721  -0.65721  -0.64740  -0.39620
 Alpha  occ. eigenvalues --   -0.39620
 Alpha virt. eigenvalues --   -0.16980  -0.16980   0.23681   0.33417   0.66978
 Alpha virt. eigenvalues --    0.67583   0.67583   0.69643   0.73603   0.73603
 Alpha virt. eigenvalues --    0.78726   0.78726   0.85287   0.86067   0.93942

 Mulliken charges and spin densities:
               1          2
     1  O    0.100513   0.000000
     2  O   -0.100513   0.000000
     3  O   -0.100513   0.000000
     4  O    0.100513   0.000000
 Sum of Mulliken charges =  -0.00000   0.00000

 Dipole moment (field-independent basis, Debye):
    X=             -0.0000    Y=              0.0000    Z=              0.0000  Tot=              0.0000
 Quadrupole moment (field-independent basis, Debye-Ang):
   XX=            -20.8493   YY=            -20.8493   ZZ=            -23.2269
   XY=              0.0000   XZ=              0.0000   YZ=              0.0000

 00.0188645\CCSD=-299.9925123\CCSD(T)=-300.1634419\RMSD=1.156e-09\PG=D*
 Normal termination of Gaussian 16 at Sat Jan 14 19:50:35 2023.
