 Gaussian 16, Revision A.03,
 Gaussian 16:  ES64L-G16RevA.03 25-Dec-2016

 ----------------------------------------------------------------------
 #p ROCCSD(T,MaxCyc=250)/cc-pVTZ Guess=Read SCF=(VeryTight,MaxCycle=250
 0,CDIIS,VShift=10)
 ----------------------------------------------------------------------

 ---------
 O2_O2_145
 ---------
 Symbolic Z-matrix:
 Charge =  0 Multiplicity = 1

                         Standard orientation:
 ---------------------------------------------------------------------
 Center     Atomic      Atomic             Coordinates (Angstroms)
 Number     Number       Type             X           Y           Z
 ---------------------------------------------------------------------
      1          8           0        0.000000    0.000000    2.845570
      2          8           0        0.000000    0.000000    4.197950
      3          8           0        0.000000    0.000000   -4.197950
      4          8           0        0.000000    0.000000   -2.845570
 ---------------------------------------------------------------------

 SCF Done:  E(ROHF) =  -298.665629012     A.U. after    6 cycles
 E2 =    -0.3382700259D+01 EUMP2 =    -0.30204832927105D+03
 CCSD(T)
 CCSD(T)= -0.30029991826D+03

 The electronic state is 1-SGG.
 Alpha  occ. eigenvalues --  -20.79274 -20.79274 -20.78378 -20.78378  -1.55893
 Alpha  occ. eigenvalues --   -1.55890  -1.16183  -1.16141  -0.70913  -0.70908
 Alpha  occ. eigenvalues --   -0.66787  -0.66787  -0.66631  -0.66631  -0.31616
 Alpha  occ. eigenvalues --   -0.31616
 Alpha virt. eigenvalues --   -0.23940  -0.23940   0.26242   0.26275   0.67656
 Alpha virt. eigenvalues --    0.67784   0.71672   0.71672   0.71674   0.71674
 Alpha virt. eigenvalues --    0.75308   0.75359   0.81951   0.81951   0.81955

 Mulliken charges and spin densities:
               1          2
     1  O    0.009983  -0.000000
     2  O   -0.009983  -0.000000
     3  O   -0.009983  -0.000000
     4  O    0.009983  -0.000000
 Sum of Mulliken charges =  -0.00000  -0.00000

 Dipole moment (field-independent basis, Debye):
    X=             -0.0000    Y=             -0.0000    Z=             -0.0000  Tot=              0.0000
 Quadrupole moment (field-independent basis, Debye-Ang):
   XX=            -20.7394   YY=            -20.7394   ZZ=            -21.3939
   XY=              0.0000   XZ=              0.0000   YZ=              0.0000

 -302.0483293\MP4SDQ=-333.272173\CCSD=-299.9594102\CCSD(T)=-300.2999183
 Normal termination of Gaussian 16 at Sun Jan 15 04:16:44 2023.
