 Gaussian 16, Revision A.03,
 Gaussian 16:  ES64L-G16RevA.03 25-Dec-2016

 ---------------------------------------------------------------
 #p ROCCSD(T)/cc-pVTZ Guess=Read SCF=(VeryTight,CDIIS,VShift=10)
 ---------------------------------------------------------------

 --------
 O2_O2_70
 --------
 Symbolic Z-matrix:
 Charge =  0 Multiplicity = 1

                         Standard orientation:
 ---------------------------------------------------------------------
 Center     Atomic      Atomic             Coordinates (Angstroms)
 Number     Number       Type             X           Y           Z
 ---------------------------------------------------------------------
      1          8           0        0.000000    0.000000    1.783676
      2          8           0        0.000000    0.000000    3.136056
      3          8           0        0.000000    0.000000   -3.136056
      4          8           0        0.000000    0.000000   -1.783676
 ---------------------------------------------------------------------

 SCF Done:  E(ROHF) =  -298.704105525     A.U. after    7 cycles
 E2 =    -0.2469291228D+01 EUMP2 =    -0.30117339675235D+03
 CCSD(T)
 CCSD(T)= -0.30025900462D+03

 The electronic state is 1-SGG.
 Alpha  occ. eigenvalues --  -20.80033 -20.80032 -20.77983 -20.77983  -1.56058
 Alpha  occ. eigenvalues --   -1.56020  -1.16419  -1.16163  -0.71254  -0.70847
 Alpha  occ. eigenvalues --   -0.67104  -0.67104  -0.66577  -0.66577  -0.33578
 Alpha  occ. eigenvalues --   -0.33578
 Alpha virt. eigenvalues --   -0.22179  -0.22179   0.23926   0.27925   0.58660
 Alpha virt. eigenvalues --    0.71006   0.71014   0.71014   0.72040   0.72040
 Alpha virt. eigenvalues --    0.73164   0.80725   0.80725   0.83206   0.83206

 Mulliken charges and spin densities:
               1          2
     1  O    0.020657   0.000000
     2  O   -0.020657   0.000000
     3  O   -0.020657   0.000000
     4  O    0.020657   0.000000
 Sum of Mulliken charges =  -0.00000   0.00000

 Dipole moment (field-independent basis, Debye):
    X=             -0.0000    Y=             -0.0000    Z=             -0.0000  Tot=              0.0000
 Quadrupole moment (field-independent basis, Debye-Ang):
   XX=            -20.7553   YY=            -20.7553   ZZ=            -21.6672
   XY=              0.0000   XZ=              0.0000   YZ=              0.0000

 4.4519616\CCSD=-299.9647352\CCSD(T)=-300.2590046\RMSD=8.319e-09\PG=D*H
 Normal termination of Gaussian 16 at Sat Jan 14 21:19:33 2023.
