 Gaussian 16, Revision A.03,
 Gaussian 16:  ES64L-G16RevA.03 25-Dec-2016

 ----------------------------------------------------------------------
 #p ROCCSD(T,MaxCyc=350)/cc-pVTZ Guess=Read SCF=(VeryTight,MaxCycle=250
 0,CDIIS,VShift=10)
 ----------------------------------------------------------------------

 ---------
 O2_O2_245
 ---------
 Symbolic Z-matrix:
 Charge =  0 Multiplicity = 1

                         Standard orientation:
 ---------------------------------------------------------------------
 Center     Atomic      Atomic             Coordinates (Angstroms)
 Number     Number       Type             X           Y           Z
 ---------------------------------------------------------------------
      1          8           0        0.000000    0.000000    4.261428
      2          8           0        0.000000    0.000000    5.613808
      3          8           0        0.000000    0.000000   -5.613808
      4          8           0        0.000000    0.000000   -4.261428
 ---------------------------------------------------------------------

 SCF Done:  E(ROHF) =  -298.643030395     A.U. after    6 cycles
 E2 =    -0.4568539924D+01 EUMP2 =    -0.30321157031860D+03
 CCSD(T)
 CCSD(T)= -0.30032596298D+03

 The electronic state is 1-SGG.
 Alpha  occ. eigenvalues --  -20.79039 -20.79039 -20.78587 -20.78587  -1.55877
 Alpha  occ. eigenvalues --   -1.55876  -1.16156  -1.16142  -0.70896  -0.70896
 Alpha  occ. eigenvalues --   -0.66721  -0.66721  -0.66667  -0.66667  -0.30474
 Alpha  occ. eigenvalues --   -0.30474
 Alpha virt. eigenvalues --   -0.25059  -0.25059   0.26272   0.26272   0.67737
 Alpha virt. eigenvalues --    0.67740   0.71687   0.71687   0.71687   0.71687
 Alpha virt. eigenvalues --    0.75343   0.75344   0.81964   0.81964   0.81964

 Mulliken charges and spin densities:
               1          2
     1  O    0.005032  -0.000000
     2  O   -0.005032  -0.000000
     3  O   -0.005032  -0.000000
     4  O    0.005032  -0.000000
 Sum of Mulliken charges =  -0.00000  -0.00000

 Dipole moment (field-independent basis, Debye):
    X=             -0.0000    Y=              0.0000    Z=              0.0000  Tot=              0.0000
 Quadrupole moment (field-independent basis, Debye-Ang):
   XX=            -20.7394   YY=            -20.7394   ZZ=            -21.1658
   XY=              0.0000   XZ=              0.0000   YZ=              0.0000

 P2-0=-303.2115703\MP4SDQ=-443.7644304\CCSD=-299.9573112\CCSD(T)=-300.3
 Normal termination of Gaussian 16 at Sun Jan 15 09:17:42 2023.
