 Gaussian 16, Revision A.03,
 Gaussian 16:  ES64L-G16RevA.03 25-Dec-2016

 ---------------------------------------------------------------
 #p ROCCSD(T)/cc-pVTZ Guess=Read SCF=(VeryTight,CDIIS,VShift=10)
 ---------------------------------------------------------------

 --------
 O2_O2_90
 --------
 Symbolic Z-matrix:
 Charge =  0 Multiplicity = 1

                         Standard orientation:
 ---------------------------------------------------------------------
 Center     Atomic      Atomic             Coordinates (Angstroms)
 Number     Number       Type             X           Y           Z
 ---------------------------------------------------------------------
      1          8           0        0.000000    0.000000    2.066848
      2          8           0        0.000000    0.000000    3.419228
      3          8           0        0.000000    0.000000   -3.419228
      4          8           0        0.000000    0.000000   -2.066848
 ---------------------------------------------------------------------

 SCF Done:  E(ROHF) =  -298.689571560     A.U. after    7 cycles
 E2 =    -0.2720380702D+01 EUMP2 =    -0.30140995226211D+03
 CCSD(T)
 CCSD(T)= -0.30027401504D+03

 The electronic state is 1-SGG.
 Alpha  occ. eigenvalues --  -20.79661 -20.79660 -20.78119 -20.78119  -1.55956
 Alpha  occ. eigenvalues --   -1.55939  -1.16274  -1.16150  -0.71027  -0.70903
 Alpha  occ. eigenvalues --   -0.66938  -0.66938  -0.66585  -0.66585  -0.32838
 Alpha  occ. eigenvalues --   -0.32838
 Alpha virt. eigenvalues --   -0.22798  -0.22798   0.25183   0.27070   0.63205
 Alpha virt. eigenvalues --    0.70393   0.71500   0.71500   0.71757   0.71757
 Alpha virt. eigenvalues --    0.73973   0.78970   0.81603   0.81603   0.82252

 Mulliken charges and spin densities:
               1          2
     1  O    0.016590   0.000000
     2  O   -0.016590   0.000000
     3  O   -0.016590   0.000000
     4  O    0.016590   0.000000
 Sum of Mulliken charges =   0.00000   0.00000

 Dipole moment (field-independent basis, Debye):
    X=             -0.0000    Y=             -0.0000    Z=             -0.0000  Tot=              0.0000
 Quadrupole moment (field-independent basis, Debye-Ang):
   XX=            -20.7437   YY=            -20.7437   ZZ=            -21.5997
   XY=              0.0000   XZ=              0.0000   YZ=              0.0000

 08.9818159\CCSD=-299.9623218\CCSD(T)=-300.274015\RMSD=3.528e-09\PG=D*H
 Normal termination of Gaussian 16 at Sat Jan 14 21:49:05 2023.
