 Gaussian 16, Revision A.03,
 Gaussian 16:  ES64L-G16RevA.03 25-Dec-2016

 ---------------------------------------------------------------
 #p ROCCSD(T)/cc-pVTZ Guess=Read SCF=(VeryTight,CDIIS,VShift=10)
 ---------------------------------------------------------------

 --------
 O2_O2_18
 --------
 Symbolic Z-matrix:
 Charge =  0 Multiplicity = 1

                         Standard orientation:
 ---------------------------------------------------------------------
 Center     Atomic      Atomic             Coordinates (Angstroms)
 Number     Number       Type             X           Y           Z
 ---------------------------------------------------------------------
      1          8           0        0.000000    0.000000    1.047430
      2          8           0        0.000000    0.000000    2.399810
      3          8           0        0.000000    0.000000   -2.399810
      4          8           0        0.000000    0.000000   -1.047430
 ---------------------------------------------------------------------

 SCF Done:  E(ROHF) =  -298.795984503     A.U. after    9 cycles
 E2 =    -0.1741704062D+01 EUMP2 =    -0.30053768856436D+03
 CCSD(T)
 CCSD(T)= -0.30018213917D+03

 The electronic state is 1-SGG.
 Alpha  occ. eigenvalues --  -20.83559 -20.83552 -20.76619 -20.76619  -1.57637
 Alpha  occ. eigenvalues --   -1.56459  -1.19958  -1.14663  -0.75867  -0.69136
 Alpha  occ. eigenvalues --   -0.69136  -0.67439  -0.66163  -0.66163  -0.38160
 Alpha  occ. eigenvalues --   -0.38160
 Alpha virt. eigenvalues --   -0.18443  -0.18443   0.23746   0.31764   0.67218
 Alpha virt. eigenvalues --    0.67218   0.67715   0.70489   0.73370   0.73370
 Alpha virt. eigenvalues --    0.78088   0.78088   0.83485   0.86765   0.89060

 Mulliken charges and spin densities:
               1          2
     1  O    0.072842   0.000000
     2  O   -0.072842   0.000000
     3  O   -0.072842   0.000000
     4  O    0.072842   0.000000
 Sum of Mulliken charges =  -0.00000   0.00000

 Dipole moment (field-independent basis, Debye):
    X=             -0.0000    Y=              0.0000    Z=              0.0000  Tot=              0.0000
 Quadrupole moment (field-independent basis, Debye-Ang):
   XX=            -20.8643   YY=            -20.8643   ZZ=            -22.4801
   XY=              0.0000   XZ=              0.0000   YZ=              0.0000

 .0589269\CCSD=-299.9896064\CCSD(T)=-300.1821392\RMSD=3.628e-09\PG=D*H
 Normal termination of Gaussian 16 at Sat Jan 14 20:02:54 2023.
