 Gaussian 16, Revision A.03,
 Gaussian 16:  ES64L-G16RevA.03 25-Dec-2016

 ----------------------------------------------------------------------
 #p ROCCSD(T,MaxCyc=250)/cc-pVTZ Guess=Read SCF=(VeryTight,MaxCycle=250
 0,CDIIS,VShift=10)
 ----------------------------------------------------------------------

 ---------
 O2_O2_105
 ---------
 Symbolic Z-matrix:
 Charge =  0 Multiplicity = 1

                         Standard orientation:
 ---------------------------------------------------------------------
 Center     Atomic      Atomic             Coordinates (Angstroms)
 Number     Number       Type             X           Y           Z
 ---------------------------------------------------------------------
      1          8           0        0.000000    0.000000    2.279227
      2          8           0        0.000000    0.000000    3.631607
      3          8           0        0.000000    0.000000   -3.631607
      4          8           0        0.000000    0.000000   -2.279227
 ---------------------------------------------------------------------

 SCF Done:  E(ROHF) =  -298.681424782     A.U. after    7 cycles
 E2 =    -0.2903416531D+01 EUMP2 =    -0.30158484131277D+03
 CCSD(T)
 CCSD(T)= -0.30028264986D+03

 The electronic state is 1-SGG.
 Alpha  occ. eigenvalues --  -20.79503 -20.79503 -20.78205 -20.78205  -1.55923
 Alpha  occ. eigenvalues --   -1.55913  -1.16228  -1.16144  -0.70962  -0.70912
 Alpha  occ. eigenvalues --   -0.66871  -0.66871  -0.66598  -0.66598  -0.32421
 Alpha  occ. eigenvalues --   -0.32421
 Alpha virt. eigenvalues --   -0.23174  -0.23174   0.25806   0.26626   0.65904
 Alpha virt. eigenvalues --    0.69153   0.71614   0.71614   0.71689   0.71689
 Alpha virt. eigenvalues --    0.74650   0.76357   0.81840   0.81840   0.82034

 Mulliken charges and spin densities:
               1          2
     1  O    0.014265   0.000000
     2  O   -0.014265   0.000000
     3  O   -0.014265   0.000000
     4  O    0.014265   0.000000
 Sum of Mulliken charges =  -0.00000   0.00000

 Dipole moment (field-independent basis, Debye):
    X=             -0.0000    Y=             -0.0000    Z=              0.0000  Tot=              0.0000
 Quadrupole moment (field-independent basis, Debye-Ang):
   XX=            -20.7407   YY=            -20.7407   ZZ=            -21.5409
   XY=              0.0000   XZ=              0.0000   YZ=              0.0000

 2-0=-301.5848413\MP4SDQ=-313.7213152\CCSD=-299.9612095\CCSD(T)=-300.28
 Normal termination of Gaussian 16 at Sun Jan 15 03:13:52 2023.
