 Gaussian 16, Revision A.03,
 Gaussian 16:  ES64L-G16RevA.03 25-Dec-2016

 ----------------------------------------------------------------------
 #p ROCCSD(T,MaxCyc=350)/cc-pVTZ Guess=Read SCF=(VeryTight,MaxCycle=250
 0,CDIIS,VShift=10)
 ----------------------------------------------------------------------

 ---------
 O2_O2_168
 ---------
 Symbolic Z-matrix:
 Charge =  0 Multiplicity = 1

                         Standard orientation:
 ---------------------------------------------------------------------
 Center     Atomic      Atomic             Coordinates (Angstroms)
 Number     Number       Type             X           Y           Z
 ---------------------------------------------------------------------
      1          8           0        0.000000    0.000000    3.171218
      2          8           0        0.000000    0.000000    4.523598
      3          8           0        0.000000    0.000000   -4.523598
      4          8           0        0.000000    0.000000   -3.171218
 ---------------------------------------------------------------------

 SCF Done:  E(ROHF) =  -298.658874161     A.U. after    6 cycles
 E2 =    -0.3656259849D+01 EUMP2 =    -0.30231513401034D+03
 CCSD(T)
 CCSD(T)= -0.30030753614D+03

 The electronic state is 1-SGG.
 Alpha  occ. eigenvalues --  -20.79195 -20.79195 -20.78447 -20.78447  -1.55886
 Alpha  occ. eigenvalues --   -1.55884  -1.16172  -1.16141  -0.70906  -0.70903
 Alpha  occ. eigenvalues --   -0.66762  -0.66762  -0.66644  -0.66644  -0.31273
 Alpha  occ. eigenvalues --   -0.31273
 Alpha virt. eigenvalues --   -0.24273  -0.24273   0.26262   0.26266   0.67720
 Alpha virt. eigenvalues --    0.67736   0.71678   0.71678   0.71679   0.71679
 Alpha virt. eigenvalues --    0.75335   0.75341   0.81958   0.81958   0.81958

 Mulliken charges and spin densities:
               1          2
     1  O    0.008341   0.000000
     2  O   -0.008341   0.000000
     3  O   -0.008341   0.000000
     4  O    0.008341   0.000000
 Sum of Mulliken charges =  -0.00000   0.00000

 Dipole moment (field-independent basis, Debye):
    X=             -0.0000    Y=             -0.0000    Z=              0.0000  Tot=              0.0000
 Quadrupole moment (field-independent basis, Debye-Ang):
   XX=            -20.7394   YY=            -20.7394   ZZ=            -21.3264
   XY=              0.0000   XZ=              0.0000   YZ=              0.0000

 -0=-302.315134\MP4SDQ=-349.9947274\CCSD=-299.9587344\CCSD(T)=-300.3075
 Normal termination of Gaussian 16 at Sun Jan 15 06:09:20 2023.
