 Gaussian 16, Revision A.03,
 Gaussian 16:  ES64L-G16RevA.03 25-Dec-2016

 ----------------------------------------------------------------------
 #p ROCCSD(T,MaxCyc=350)/cc-pVTZ Guess=Read SCF=(VeryTight,MaxCycle=250
 0,CDIIS,VShift=10)
 ----------------------------------------------------------------------

 ---------
 O2_O2_274
 ---------
 Symbolic Z-matrix:
 Charge =  0 Multiplicity = 1

                         Standard orientation:
 ---------------------------------------------------------------------
 Center     Atomic      Atomic             Coordinates (Angstroms)
 Number     Number       Type             X           Y           Z
 ---------------------------------------------------------------------
      1          8           0        0.000000    0.000000    4.672027
      2          8           0        0.000000    0.000000    6.024407
      3          8           0        0.000000    0.000000   -6.024407
      4          8           0        0.000000    0.000000   -4.672027
 ---------------------------------------------------------------------

 SCF Done:  E(ROHF) =  -298.638794017     A.U. after    6 cycles
 E2 =    -0.4911251713D+01 EUMP2 =    -0.30355004573059D+03
 CCSD(T)
 CCSD(T)= -0.30033101760D+03

 The electronic state is 1-SGG.
 Alpha  occ. eigenvalues --  -20.79005 -20.79004 -20.78618 -20.78618  -1.55875
 Alpha  occ. eigenvalues --   -1.55875  -1.16153  -1.16142  -0.70895  -0.70894
 Alpha  occ. eigenvalues --   -0.66714  -0.66714  -0.66671  -0.66671  -0.30261
 Alpha  occ. eigenvalues --   -0.30261
 Alpha virt. eigenvalues --   -0.25270  -0.25270   0.26273   0.26273   0.67739
 Alpha virt. eigenvalues --    0.67741   0.71688   0.71688   0.71688   0.71688
 Alpha virt. eigenvalues --    0.75344   0.75344   0.81965   0.81965   0.81965

 Mulliken charges and spin densities:
               1          2
     1  O    0.004282   0.000000
     2  O   -0.004282   0.000000
     3  O   -0.004282   0.000000
     4  O    0.004282   0.000000
 Sum of Mulliken charges =  -0.00000   0.00000

 Dipole moment (field-independent basis, Debye):
    X=             -0.0000    Y=             -0.0000    Z=              0.0000  Tot=              0.0000
 Quadrupole moment (field-independent basis, Debye-Ang):
   XX=            -20.7394   YY=            -20.7394   ZZ=            -21.1226
   XY=              0.0000   XZ=              0.0000   YZ=              0.0000

 0=-303.5500457\MP4SDQ=-497.3103886\CCSD=-299.9569649\CCSD(T)=-300.3310
 Normal termination of Gaussian 16 at Sun Jan 15 10:17:50 2023.
