 Gaussian 16, Revision A.03,
 Gaussian 16:  ES64L-G16RevA.03 25-Dec-2016

 ----------------------------------------------------------------------
 #p ROCCSD(T,MaxCyc=250)/cc-pVTZ Guess=Read SCF=(VeryTight,MaxCycle=250
 0,CDIIS,VShift=10)
 ----------------------------------------------------------------------

 ---------
 O2_O2_126
 ---------
 Symbolic Z-matrix:
 Charge =  0 Multiplicity = 1

                         Standard orientation:
 ---------------------------------------------------------------------
 Center     Atomic      Atomic             Coordinates (Angstroms)
 Number     Number       Type             X           Y           Z
 ---------------------------------------------------------------------
      1          8           0        0.000000    0.000000    2.576557
      2          8           0        0.000000    0.000000    3.928937
      3          8           0        0.000000    0.000000   -3.928937
      4          8           0        0.000000    0.000000   -2.576557
 ---------------------------------------------------------------------

 SCF Done:  E(ROHF) =  -298.672329521     A.U. after    7 cycles
 E2 =    -0.3155938932D+01 EUMP2 =    -0.30182826845268D+03
 CCSD(T)
 CCSD(T)= -0.30029250018D+03

 The electronic state is 1-SGG.
 Alpha  occ. eigenvalues --  -20.79363 -20.79362 -20.78306 -20.78306  -1.55902
 Alpha  occ. eigenvalues --   -1.55897  -1.16198  -1.16141  -0.70925  -0.70912
 Alpha  occ. eigenvalues --   -0.66817  -0.66817  -0.66617  -0.66617  -0.31957
 Alpha  occ. eigenvalues --   -0.31957
 Alpha virt. eigenvalues --   -0.23611  -0.23611   0.26160   0.26341   0.67356
 Alpha virt. eigenvalues --    0.68050   0.71660   0.71660   0.71671   0.71671
 Alpha virt. eigenvalues --    0.75182   0.75488   0.81934   0.81934   0.81962

 Mulliken charges and spin densities:
               1          2
     1  O    0.011736   0.000000
     2  O   -0.011736   0.000000
     3  O   -0.011736   0.000000
     4  O    0.011736   0.000000
 Sum of Mulliken charges =  -0.00000   0.00000

 Dipole moment (field-independent basis, Debye):
    X=             -0.0000    Y=              0.0000    Z=             -0.0000  Tot=              0.0000
 Quadrupole moment (field-independent basis, Debye-Ang):
   XX=            -20.7396   YY=            -20.7396   ZZ=            -21.4593
   XY=              0.0000   XZ=              0.0000   YZ=              0.0000

 2-0=-301.8282685\MP4SDQ=-322.6141185\CCSD=-299.9601281\CCSD(T)=-300.29
 Normal termination of Gaussian 16 at Sun Jan 15 03:46:38 2023.
