 Gaussian 16, Revision A.03,
 Gaussian 16:  ES64L-G16RevA.03 25-Dec-2016

 ----------------------------------------------------------------------
 #p ROCCSD(T,MaxCyc=350)/cc-pVTZ Guess=Read SCF=(VeryTight,MaxCycle=250
 0,CDIIS,VShift=10)
 ----------------------------------------------------------------------

 ---------
 O2_O2_222
 ---------
 Symbolic Z-matrix:
 Charge =  0 Multiplicity = 1

                         Standard orientation:
 ---------------------------------------------------------------------
 Center     Atomic      Atomic             Coordinates (Angstroms)
 Number     Number       Type             X           Y           Z
 ---------------------------------------------------------------------
      1          8           0        0.000000    0.000000    3.935780
      2          8           0        0.000000    0.000000    5.288160
      3          8           0        0.000000    0.000000   -5.288160
      4          8           0        0.000000    0.000000   -3.935780
 ---------------------------------------------------------------------

 SCF Done:  E(ROHF) =  -298.646946026     A.U. after    6 cycles
 E2 =    -0.4296453676D+01 EUMP2 =    -0.30294339970194D+03
 CCSD(T)
 CCSD(T)= -0.30032133868D+03

 The electronic state is 1-SGG.
 Alpha  occ. eigenvalues --  -20.79074 -20.79073 -20.78555 -20.78555  -1.55878
 Alpha  occ. eigenvalues --   -1.55878  -1.16159  -1.16142  -0.70898  -0.70897
 Alpha  occ. eigenvalues --   -0.66729  -0.66729  -0.66662  -0.66662  -0.30671
 Alpha  occ. eigenvalues --   -0.30671
 Alpha virt. eigenvalues --   -0.24864  -0.24864   0.26270   0.26270   0.67735
 Alpha virt. eigenvalues --    0.67739   0.71685   0.71685   0.71685   0.71685
 Alpha virt. eigenvalues --    0.75342   0.75343   0.81963   0.81963   0.81963

 Mulliken charges and spin densities:
               1          2
     1  O    0.005776  -0.000000
     2  O   -0.005776  -0.000000
     3  O   -0.005776  -0.000000
     4  O    0.005776  -0.000000
 Sum of Mulliken charges =   0.00000  -0.00000

 Dipole moment (field-independent basis, Debye):
    X=             -0.0000    Y=             -0.0000    Z=              0.0000  Tot=              0.0000
 Quadrupole moment (field-independent basis, Debye-Ang):
   XX=            -20.7394   YY=            -20.7394   ZZ=            -21.2057
   XY=              0.0000   XZ=              0.0000   YZ=              0.0000

 0=-302.9433997\MP4SDQ=-408.9014968\CCSD=-299.9576439\CCSD(T)=-300.3213
 Normal termination of Gaussian 16 at Sun Jan 15 08:33:25 2023.
