 Gaussian 16, Revision A.03,
 Gaussian 16:  ES64L-G16RevA.03 25-Dec-2016

 ----------------------------------------------------------------------
 #p ROCCSD(T,MaxCyc=350)/cc-pVTZ Guess=Read SCF=(VeryTight,MaxCycle=250
 0,CDIIS,VShift=10)
 ----------------------------------------------------------------------

 ---------
 O2_O2_187
 ---------
 Symbolic Z-matrix:
 Charge =  0 Multiplicity = 1

                         Standard orientation:
 ---------------------------------------------------------------------
 Center     Atomic      Atomic             Coordinates (Angstroms)
 Number     Number       Type             X           Y           Z
 ---------------------------------------------------------------------
      1          8           0        0.000000    0.000000    3.440231
      2          8           0        0.000000    0.000000    4.792611
      3          8           0        0.000000    0.000000   -4.792611
      4          8           0        0.000000    0.000000   -3.440231
 ---------------------------------------------------------------------

 SCF Done:  E(ROHF) =  -298.654146810     A.U. after    6 cycles
 E2 =    -0.3881782387D+01 EUMP2 =    -0.30253592919643D+03
 CCSD(T)
 CCSD(T)= -0.30031294269D+03

 The electronic state is 1-SGG.
 Alpha  occ. eigenvalues --  -20.79144 -20.79144 -20.78492 -20.78492  -1.55883
 Alpha  occ. eigenvalues --   -1.55881  -1.16166  -1.16141  -0.70902  -0.70900
 Alpha  occ. eigenvalues --   -0.66747  -0.66747  -0.66652  -0.66652  -0.31034
 Alpha  occ. eigenvalues --   -0.31034
 Alpha virt. eigenvalues --   -0.24507  -0.24507   0.26267   0.26267   0.67729
 Alpha virt. eigenvalues --    0.67735   0.71682   0.71682   0.71682   0.71682
 Alpha virt. eigenvalues --    0.75339   0.75341   0.81960   0.81960   0.81960

 Mulliken charges and spin densities:
               1          2
     1  O    0.007272   0.000000
     2  O   -0.007272   0.000000
     3  O   -0.007272   0.000000
     4  O    0.007272   0.000000
 Sum of Mulliken charges =  -0.00000   0.00000

 Dipole moment (field-independent basis, Debye):
    X=             -0.0000    Y=              0.0000    Z=             -0.0000  Tot=              0.0000
 Quadrupole moment (field-independent basis, Debye-Ang):
   XX=            -20.7394   YY=            -20.7394   ZZ=            -21.2788
   XY=              0.0000   XZ=              0.0000   YZ=              0.0000

 -0=-302.5359292\MP4SDQ=-367.3572238\CCSD=-299.958282\CCSD(T)=-300.3129
 Normal termination of Gaussian 16 at Sun Jan 15 06:59:22 2023.
