 Gaussian 16, Revision A.03,
 Gaussian 16:  ES64L-G16RevA.03 25-Dec-2016

 ---------------------------------------------------------------
 #p ROCCSD(T)/cc-pVTZ Guess=Read SCF=(VeryTight,CDIIS,VShift=10)
 ---------------------------------------------------------------

 --------
 O2_O2_43
 --------
 Symbolic Z-matrix:
 Charge =  0 Multiplicity = 1

                         Standard orientation:
 ---------------------------------------------------------------------
 Center     Atomic      Atomic             Coordinates (Angstroms)
 Number     Number       Type             X           Y           Z
 ---------------------------------------------------------------------
      1          8           0        0.000000    0.000000    1.401395
      2          8           0        0.000000    0.000000    2.753775
      3          8           0        0.000000    0.000000   -2.753775
      4          8           0        0.000000    0.000000   -1.401395
 ---------------------------------------------------------------------

 SCF Done:  E(ROHF) =  -298.737614394     A.U. after    8 cycles
 E2 =    -0.2106425398D+01 EUMP2 =    -0.30084403979155D+03
 CCSD(T)
 CCSD(T)= -0.30022718388D+03

 The electronic state is 1-SGG.
 Alpha  occ. eigenvalues --  -20.81192 -20.81190 -20.77680 -20.77680  -1.56456
 Alpha  occ. eigenvalues --   -1.56271  -1.17100  -1.16038  -0.72343  -0.70339
 Alpha  occ. eigenvalues --   -0.67655  -0.67655  -0.66559  -0.66559  -0.35216
 Alpha  occ. eigenvalues --   -0.35216
 Alpha virt. eigenvalues --   -0.20916  -0.20916   0.23426   0.29354   0.62970
 Alpha virt. eigenvalues --    0.68865   0.68865   0.69668   0.72329   0.72793
 Alpha virt. eigenvalues --    0.72793   0.78582   0.78582   0.87215   0.87215

 Mulliken charges and spin densities:
               1          2
     1  O    0.032118  -0.000000
     2  O   -0.032118   0.000000
     3  O   -0.032118  -0.000000
     4  O    0.032118  -0.000000
 Sum of Mulliken charges =  -0.00000  -0.00000

 Dipole moment (field-independent basis, Debye):
    X=             -0.0000    Y=             -0.0000    Z=              0.0000  Tot=              0.0000
 Quadrupole moment (field-independent basis, Debye-Ang):
   XX=            -20.8012   YY=            -20.8012   ZZ=            -21.7632
   XY=              0.0000   XZ=              0.0000   YZ=              0.0000

 01.0517854\CCSD=-299.9724563\CCSD(T)=-300.2271839\RMSD=2.251e-09\PG=D*
 Normal termination of Gaussian 16 at Sat Jan 14 20:38:58 2023.
