 Gaussian 16, Revision A.03,
 Gaussian 16:  ES64L-G16RevA.03 25-Dec-2016

 ----------------------------------------------------------------------
 #p ROCCSD(T,MaxCyc=250)/cc-pVTZ Guess=Read SCF=(VeryTight,MaxCycle=250
 0,CDIIS,VShift=10)
 ----------------------------------------------------------------------

 ---------
 O2_O2_152
 ---------
 Symbolic Z-matrix:
 Charge =  0 Multiplicity = 1

                         Standard orientation:
 ---------------------------------------------------------------------
 Center     Atomic      Atomic             Coordinates (Angstroms)
 Number     Number       Type             X           Y           Z
 ---------------------------------------------------------------------
      1          8           0        0.000000    0.000000    2.944680
      2          8           0        0.000000    0.000000    4.297060
      3          8           0        0.000000    0.000000   -4.297060
      4          8           0        0.000000    0.000000   -2.944680
 ---------------------------------------------------------------------

 SCF Done:  E(ROHF) =  -298.663435110     A.U. after    6 cycles
 E2 =    -0.3466038439D+01 EUMP2 =    -0.30212947354947D+03
 CCSD(T)
 CCSD(T)= -0.30030237457D+03

 The electronic state is 1-SGG.
 Alpha  occ. eigenvalues --  -20.79248 -20.79247 -20.78401 -20.78401  -1.55891
 Alpha  occ. eigenvalues --   -1.55888  -1.16179  -1.16141  -0.70910  -0.70906
 Alpha  occ. eigenvalues --   -0.66778  -0.66778  -0.66635  -0.66635  -0.31504
 Alpha  occ. eigenvalues --   -0.31504
 Alpha virt. eigenvalues --   -0.24048  -0.24048   0.26252   0.26269   0.67690
 Alpha virt. eigenvalues --    0.67757   0.71675   0.71675   0.71676   0.71676
 Alpha virt. eigenvalues --    0.75322   0.75348   0.81954   0.81954   0.81956

 Mulliken charges and spin densities:
               1          2
     1  O    0.009435   0.000000
     2  O   -0.009435   0.000000
     3  O   -0.009435   0.000000
     4  O    0.009435   0.000000
 Sum of Mulliken charges =  -0.00000   0.00000

 Dipole moment (field-independent basis, Debye):
    X=             -0.0000    Y=              0.0000    Z=              0.0000  Tot=              0.0000
 Quadrupole moment (field-independent basis, Debye-Ang):
   XX=            -20.7394   YY=            -20.7394   ZZ=            -21.3721
   XY=              0.0000   XZ=              0.0000   YZ=              0.0000

 0=-302.1294735\MP4SDQ=-337.8950174\CCSD=-299.9591847\CCSD(T)=-300.3023
 Normal termination of Gaussian 16 at Sun Jan 15 04:27:26 2023.
