 Gaussian 16, Revision A.03,
 Gaussian 16:  ES64L-G16RevA.03 25-Dec-2016

 ----------------------------------------------------------------------
 #p ROCCSD(T,MaxCyc=250)/cc-pVTZ Guess=Read SCF=(VeryTight,MaxCycle=250
 0,CDIIS,VShift=10)
 ----------------------------------------------------------------------

 ---------
 O2_O2_108
 ---------
 Symbolic Z-matrix:
 Charge =  0 Multiplicity = 1

                         Standard orientation:
 ---------------------------------------------------------------------
 Center     Atomic      Atomic             Coordinates (Angstroms)
 Number     Number       Type             X           Y           Z
 ---------------------------------------------------------------------
      1          8           0        0.000000    0.000000    2.321703
      2          8           0        0.000000    0.000000    3.674083
      3          8           0        0.000000    0.000000   -3.674083
      4          8           0        0.000000    0.000000   -2.321703
 ---------------------------------------------------------------------

 SCF Done:  E(ROHF) =  -298.679985707     A.U. after    7 cycles
 E2 =    -0.2939692491D+01 EUMP2 =    -0.30161967819819D+03
 CCSD(T)
 CCSD(T)= -0.30028419650D+03

 The electronic state is 1-SGG.
 Alpha  occ. eigenvalues --  -20.79479 -20.79478 -20.78221 -20.78221  -1.55919
 Alpha  occ. eigenvalues --   -1.55910  -1.16222  -1.16143  -0.70954  -0.70913
 Alpha  occ. eigenvalues --   -0.66861  -0.66861  -0.66601  -0.66601  -0.32348
 Alpha  occ. eigenvalues --   -0.32348
 Alpha virt. eigenvalues --   -0.23242  -0.23242   0.25887   0.26564   0.66247
 Alpha virt. eigenvalues --    0.68924   0.71625   0.71625   0.71683   0.71683
 Alpha virt. eigenvalues --    0.74762   0.76120   0.81865   0.81865   0.82014

 Mulliken charges and spin densities:
               1          2
     1  O    0.013857   0.000000
     2  O   -0.013857   0.000000
     3  O   -0.013857   0.000000
     4  O    0.013857   0.000000
 Sum of Mulliken charges =  -0.00000   0.00000

 Dipole moment (field-independent basis, Debye):
    X=             -0.0000    Y=              0.0000    Z=              0.0000  Tot=              0.0000
 Quadrupole moment (field-independent basis, Debye-Ang):
   XX=            -20.7404   YY=            -20.7404   ZZ=            -21.5289
   XY=              0.0000   XZ=              0.0000   YZ=              0.0000

 2-0=-301.6196782\MP4SDQ=-314.8226565\CCSD=-299.9610303\CCSD(T)=-300.28
 Normal termination of Gaussian 16 at Sun Jan 15 03:18:30 2023.
