 Gaussian 16, Revision A.03,
 Gaussian 16:  ES64L-G16RevA.03 25-Dec-2016

 ---------------------------------------------------------------
 #p ROCCSD(T)/cc-pVTZ Guess=Read SCF=(VeryTight,CDIIS,VShift=10)
 ---------------------------------------------------------------

 --------
 O2_O2_62
 --------
 Symbolic Z-matrix:
 Charge =  0 Multiplicity = 1

                         Standard orientation:
 ---------------------------------------------------------------------
 Center     Atomic      Atomic             Coordinates (Angstroms)
 Number     Number       Type             X           Y           Z
 ---------------------------------------------------------------------
      1          8           0        0.000000    0.000000    1.670408
      2          8           0        0.000000    0.000000    3.022788
      3          8           0        0.000000    0.000000   -3.022788
      4          8           0        0.000000    0.000000   -1.670408
 ---------------------------------------------------------------------

 SCF Done:  E(ROHF) =  -298.711799726     A.U. after    7 cycles
 E2 =    -0.2365278211D+01 EUMP2 =    -0.30107707793736D+03
 CCSD(T)
 CCSD(T)= -0.30025129480D+03

 The electronic state is 1-SGG.
 Alpha  occ. eigenvalues --  -20.80271 -20.80269 -20.77917 -20.77917  -1.56133
 Alpha  occ. eigenvalues --   -1.56075  -1.16531  -1.16161  -0.71438  -0.70783
 Alpha  occ. eigenvalues --   -0.67213  -0.67213  -0.66577  -0.66577  -0.33964
 Alpha  occ. eigenvalues --   -0.33964
 Alpha virt. eigenvalues --   -0.21874  -0.21874   0.23546   0.28313   0.58064
 Alpha virt. eigenvalues --    0.70599   0.70599   0.70824   0.72236   0.72236
 Alpha virt. eigenvalues --    0.72922   0.80136   0.80136   0.83992   0.83992

 Mulliken charges and spin densities:
               1          2
     1  O    0.022821   0.000000
     2  O   -0.022821   0.000000
     3  O   -0.022821   0.000000
     4  O    0.022821   0.000000
 Sum of Mulliken charges =  -0.00000   0.00000

 Dipole moment (field-independent basis, Debye):
    X=             -0.0000    Y=              0.0000    Z=             -0.0000  Tot=              0.0000
 Quadrupole moment (field-independent basis, Debye-Ang):
   XX=            -20.7643   YY=            -20.7643   ZZ=            -21.6895
   XY=              0.0000   XZ=              0.0000   YZ=              0.0000

 03.1455956\CCSD=-299.966248\CCSD(T)=-300.2512948\RMSD=7.519e-09\PG=D*H
 Normal termination of Gaussian 16 at Sat Jan 14 21:07:09 2023.
