 Gaussian 16, Revision A.03,
 Gaussian 16:  ES64L-G16RevA.03 25-Dec-2016

 ---------------------------------------------------------------
 #p ROCCSD(T)/cc-pVTZ Guess=Read SCF=(VeryTight,CDIIS,VShift=10)
 ---------------------------------------------------------------

 --------
 O2_O2_99
 --------
 Symbolic Z-matrix:
 Charge =  0 Multiplicity = 1

                         Standard orientation:
 ---------------------------------------------------------------------
 Center     Atomic      Atomic             Coordinates (Angstroms)
 Number     Number       Type             X           Y           Z
 ---------------------------------------------------------------------
      1          8           0        0.000000    0.000000    2.194275
      2          8           0        0.000000    0.000000    3.546655
      3          8           0        0.000000    0.000000   -3.546655
      4          8           0        0.000000    0.000000   -2.194275
 ---------------------------------------------------------------------

 SCF Done:  E(ROHF) =  -298.684477112     A.U. after    7 cycles
 E2 =    -0.2830573726D+01 EUMP2 =    -0.30151505083850D+03
 CCSD(T)
 CCSD(T)= -0.30027939543D+03

 The electronic state is 1-SGG.
 Alpha  occ. eigenvalues --  -20.79558 -20.79558 -20.78172 -20.78172  -1.55933
 Alpha  occ. eigenvalues --   -1.55921  -1.16243  -1.16146  -0.70982  -0.70910
 Alpha  occ. eigenvalues --   -0.66894  -0.66894  -0.66592  -0.66592  -0.32577
 Alpha  occ. eigenvalues --   -0.32577
 Alpha virt. eigenvalues --   -0.23031  -0.23031   0.25603   0.26778   0.65026
 Alpha virt. eigenvalues --    0.69658   0.71582   0.71582   0.71707   0.71707
 Alpha virt. eigenvalues --    0.74395   0.77057   0.81773   0.81773   0.82093

 Mulliken charges and spin densities:
               1          2
     1  O    0.015135  -0.000000
     2  O   -0.015135  -0.000000
     3  O   -0.015135  -0.000000
     4  O    0.015135  -0.000000
 Sum of Mulliken charges =   0.00000  -0.00000

 Dipole moment (field-independent basis, Debye):
    X=             -0.0000    Y=             -0.0000    Z=              0.0000  Tot=              0.0000
 Quadrupole moment (field-independent basis, Debye-Ang):
   XX=            -20.7416   YY=            -20.7416   ZZ=            -21.5648
   XY=              0.0000   XZ=              0.0000   YZ=              0.0000

 .6758763\CCSD=-299.9616081\CCSD(T)=-300.2793954\RMSD=2.580e-09\PG=D*H
 Normal termination of Gaussian 16 at Sat Jan 14 22:04:37 2023.
