 Gaussian 16, Revision A.03,
 Gaussian 16:  ES64L-G16RevA.03 25-Dec-2016

 ----------------------------------------------------------------------
 #p ROCCSD(T,MaxCyc=350)/cc-pVTZ Guess=Read SCF=(VeryTight,MaxCycle=250
 0,CDIIS,VShift=10)
 ----------------------------------------------------------------------

 ---------
 O2_O2_228
 ---------
 Symbolic Z-matrix:
 Charge =  0 Multiplicity = 1

                         Standard orientation:
 ---------------------------------------------------------------------
 Center     Atomic      Atomic             Coordinates (Angstroms)
 Number     Number       Type             X           Y           Z
 ---------------------------------------------------------------------
      1          8           0        0.000000    0.000000    4.020732
      2          8           0        0.000000    0.000000    5.373112
      3          8           0        0.000000    0.000000   -5.373112
      4          8           0        0.000000    0.000000   -4.020732
 ---------------------------------------------------------------------

 SCF Done:  E(ROHF) =  -298.645870265     A.U. after    6 cycles
 E2 =    -0.4367460099D+01 EUMP2 =    -0.30301333036381D+03
 CCSD(T)
 CCSD(T)= -0.30032260509D+03

 The electronic state is 1-SGG.
 Alpha  occ. eigenvalues --  -20.79064 -20.79064 -20.78564 -20.78564  -1.55878
 Alpha  occ. eigenvalues --   -1.55877  -1.16158  -1.16142  -0.70897  -0.70897
 Alpha  occ. eigenvalues --   -0.66727  -0.66727  -0.66663  -0.66663  -0.30617
 Alpha  occ. eigenvalues --   -0.30617
 Alpha virt. eigenvalues --   -0.24918  -0.24918   0.26271   0.26271   0.67736
 Alpha virt. eigenvalues --    0.67739   0.71686   0.71686   0.71686   0.71686
 Alpha virt. eigenvalues --    0.75342   0.75343   0.81963   0.81963   0.81963

 Mulliken charges and spin densities:
               1          2
     1  O    0.005567   0.000000
     2  O   -0.005567   0.000000
     3  O   -0.005567   0.000000
     4  O    0.005567   0.000000
 Sum of Mulliken charges =  -0.00000   0.00000

 Dipole moment (field-independent basis, Debye):
    X=             -0.0000    Y=             -0.0000    Z=              0.0000  Tot=              0.0000
 Quadrupole moment (field-independent basis, Debye-Ang):
   XX=            -20.7394   YY=            -20.7394   ZZ=            -21.1948
   XY=              0.0000   XZ=              0.0000   YZ=              0.0000

 P2-0=-303.0133304\MP4SDQ=-417.3848016\CCSD=-299.9575515\CCSD(T)=-300.3
 Normal termination of Gaussian 16 at Sun Jan 15 08:44:24 2023.
