 Gaussian 16, Revision A.03,
 Gaussian 16:  ES64L-G16RevA.03 25-Dec-2016

 ---------------------------------------------------------------
 #p ROCCSD(T)/cc-pVTZ Guess=Read SCF=(VeryTight,CDIIS,VShift=10)
 ---------------------------------------------------------------

 --------
 O2_O2_40
 --------
 Symbolic Z-matrix:
 Charge =  0 Multiplicity = 1

                         Standard orientation:
 ---------------------------------------------------------------------
 Center     Atomic      Atomic             Coordinates (Angstroms)
 Number     Number       Type             X           Y           Z
 ---------------------------------------------------------------------
      1          8           0        0.000000    0.000000    1.358919
      2          8           0        0.000000    0.000000    2.711299
      3          8           0        0.000000    0.000000   -2.711299
      4          8           0        0.000000    0.000000   -1.358919
 ---------------------------------------------------------------------

 SCF Done:  E(ROHF) =  -298.743032671     A.U. after    8 cycles
 E2 =    -0.2063861192D+01 EUMP2 =    -0.30080689386277D+03
 CCSD(T)
 CCSD(T)= -0.30022251345D+03

 The electronic state is 1-SGG.
 Alpha  occ. eigenvalues --  -20.81399 -20.81396 -20.77621 -20.77620  -1.56535
 Alpha  occ. eigenvalues --   -1.56309  -1.17259  -1.15984  -0.72582  -0.70197
 Alpha  occ. eigenvalues --   -0.67760  -0.67760  -0.66547  -0.66547  -0.35473
 Alpha  occ. eigenvalues --   -0.35473
 Alpha virt. eigenvalues --   -0.20718  -0.20718   0.23472   0.29549   0.64702
 Alpha virt. eigenvalues --    0.68529   0.68529   0.69431   0.72200   0.72875
 Alpha virt. eigenvalues --    0.72875   0.78387   0.78387   0.87883   0.87883

 Mulliken charges and spin densities:
               1          2
     1  O    0.034600  -0.000000
     2  O   -0.034600  -0.000000
     3  O   -0.034600  -0.000000
     4  O    0.034600  -0.000000
 Sum of Mulliken charges =  -0.00000  -0.00000

 Dipole moment (field-independent basis, Debye):
    X=             -0.0000    Y=             -0.0000    Z=             -0.0000  Tot=              0.0000
 Quadrupole moment (field-independent basis, Debye-Ang):
   XX=            -20.8093   YY=            -20.8093   ZZ=            -21.7883
   XY=              0.0000   XZ=              0.0000   YZ=              0.0000

 00.8388612\CCSD=-299.9739465\CCSD(T)=-300.2225135\RMSD=2.349e-09\PG=D*
 Normal termination of Gaussian 16 at Sat Jan 14 20:34:21 2023.
