 Gaussian 16, Revision A.03,
 Gaussian 16:  ES64L-G16RevA.03 25-Dec-2016

 ----------------------------------------------------------------------
 #p ROCCSD(T,MaxCyc=250)/cc-pVTZ Guess=Read SCF=(VeryTight,MaxCycle=250
 0,CDIIS,VShift=10)
 ----------------------------------------------------------------------

 ---------
 O2_O2_116
 ---------
 Symbolic Z-matrix:
 Charge =  0 Multiplicity = 1

                         Standard orientation:
 ---------------------------------------------------------------------
 Center     Atomic      Atomic             Coordinates (Angstroms)
 Number     Number       Type             X           Y           Z
 ---------------------------------------------------------------------
      1          8           0        0.000000    0.000000    2.434971
      2          8           0        0.000000    0.000000    3.787351
      3          8           0        0.000000    0.000000   -3.787351
      4          8           0        0.000000    0.000000   -2.434971
 ---------------------------------------------------------------------

 SCF Done:  E(ROHF) =  -298.676393496     A.U. after    7 cycles
 E2 =    -0.3036053443D+01 EUMP2 =    -0.30171244693831D+03
 CCSD(T)
 CCSD(T)= -0.30028807128D+03

 The electronic state is 1-SGG.
 Alpha  occ. eigenvalues --  -20.79422 -20.79421 -20.78261 -20.78261  -1.55910
 Alpha  occ. eigenvalues --   -1.55903  -1.16209  -1.16142  -0.70938  -0.70913
 Alpha  occ. eigenvalues --   -0.66839  -0.66839  -0.66608  -0.66608  -0.32164
 Alpha  occ. eigenvalues --   -0.32164
 Alpha virt. eigenvalues --   -0.23414  -0.23414   0.26046   0.26436   0.66906
 Alpha virt. eigenvalues --    0.68430   0.71646   0.71646   0.71674   0.71674
 Alpha virt. eigenvalues --    0.75001   0.75719   0.81907   0.81907   0.81980

 Mulliken charges and spin densities:
               1          2
     1  O    0.012850   0.000000
     2  O   -0.012850   0.000000
     3  O   -0.012850   0.000000
     4  O    0.012850   0.000000
 Sum of Mulliken charges =  -0.00000   0.00000

 Dipole moment (field-independent basis, Debye):
    X=             -0.0000    Y=              0.0000    Z=              0.0000  Tot=              0.0000
 Quadrupole moment (field-independent basis, Debye-Ang):
   XX=            -20.7399   YY=            -20.7399   ZZ=            -21.4973
   XY=              0.0000   XZ=              0.0000   YZ=              0.0000

 2-0=-301.7124469\MP4SDQ=-318.0278215\CCSD=-299.9605948\CCSD(T)=-300.28
 Normal termination of Gaussian 16 at Sun Jan 15 03:30:32 2023.
