 Gaussian 16, Revision A.03,
 Gaussian 16:  ES64L-G16RevA.03 25-Dec-2016

 ---------------------------------------------------------------
 #p ROCCSD(T)/cc-pVTZ Guess=Read SCF=(VeryTight,CDIIS,VShift=10)
 ---------------------------------------------------------------

 --------
 O2_O2_91
 --------
 Symbolic Z-matrix:
 Charge =  0 Multiplicity = 1

                         Standard orientation:
 ---------------------------------------------------------------------
 Center     Atomic      Atomic             Coordinates (Angstroms)
 Number     Number       Type             X           Y           Z
 ---------------------------------------------------------------------
      1          8           0        0.000000    0.000000    2.081007
      2          8           0        0.000000    0.000000    3.433387
      3          8           0        0.000000    0.000000   -3.433387
      4          8           0        0.000000    0.000000   -2.081007
 ---------------------------------------------------------------------

 SCF Done:  E(ROHF) =  -298.688970582     A.U. after    7 cycles
 E2 =    -0.2732689864D+01 EUMP2 =    -0.30142166044605D+03
 CCSD(T)
 CCSD(T)= -0.30027464667D+03

 The electronic state is 1-SGG.
 Alpha  occ. eigenvalues --  -20.79648 -20.79647 -20.78125 -20.78125  -1.55953
 Alpha  occ. eigenvalues --   -1.55937  -1.16270  -1.16149  -0.71021  -0.70905
 Alpha  occ. eigenvalues --   -0.66932  -0.66932  -0.66586  -0.66586  -0.32807
 Alpha  occ. eigenvalues --   -0.32807
 Alpha virt. eigenvalues --   -0.22825  -0.22825   0.25236   0.27034   0.63434
 Alpha virt. eigenvalues --    0.70321   0.71512   0.71512   0.71750   0.71750
 Alpha virt. eigenvalues --    0.74020   0.78692   0.81627   0.81627   0.82229

 Mulliken charges and spin densities:
               1          2
     1  O    0.016419   0.000000
     2  O   -0.016419   0.000000
     3  O   -0.016419   0.000000
     4  O    0.016419   0.000000
 Sum of Mulliken charges =  -0.00000   0.00000

 Dipole moment (field-independent basis, Debye):
    X=             -0.0000    Y=              0.0000    Z=              0.0000  Tot=              0.0000
 Quadrupole moment (field-independent basis, Debye-Ang):
   XX=            -20.7434   YY=            -20.7434   ZZ=            -21.5959
   XY=              0.0000   XZ=              0.0000   YZ=              0.0000

 09.2598412\CCSD=-299.9622343\CCSD(T)=-300.2746467\RMSD=3.368e-09\PG=D*
 Normal termination of Gaussian 16 at Sat Jan 14 21:50:47 2023.
