 Gaussian 16, Revision A.03,
 Gaussian 16:  ES64L-G16RevA.03 25-Dec-2016

 ---------------------------------------------------------------
 #p ROCCSD(T)/cc-pVTZ Guess=Read SCF=(VeryTight,CDIIS,VShift=10)
 ---------------------------------------------------------------

 --------
 O2_O2_15
 --------
 Symbolic Z-matrix:
 Charge =  0 Multiplicity = 1

                         Standard orientation:
 ---------------------------------------------------------------------
 Center     Atomic      Atomic             Coordinates (Angstroms)
 Number     Number       Type             X           Y           Z
 ---------------------------------------------------------------------
      1          8           0        0.000000    0.000000    1.004954
      2          8           0        0.000000    0.000000    2.357334
      3          8           0        0.000000    0.000000   -2.357334
      4          8           0        0.000000    0.000000   -1.004954
 ---------------------------------------------------------------------

 SCF Done:  E(ROHF) =  -298.803937789     A.U. after    9 cycles
 E2 =    -0.1697918170D+01 EUMP2 =    -0.30050185595881D+03
 CCSD(T)
 CCSD(T)= -0.30017573924D+03

 The electronic state is 1-SGG.
 Alpha  occ. eigenvalues --  -20.83943 -20.83935 -20.76334 -20.76334  -1.57931
 Alpha  occ. eigenvalues --   -1.56425  -1.20730  -1.14250  -0.76600  -0.69476
 Alpha  occ. eigenvalues --   -0.69476  -0.66606  -0.66027  -0.66027  -0.38671
 Alpha  occ. eigenvalues --   -0.38671
 Alpha virt. eigenvalues --   -0.17951  -0.17951   0.23744   0.32289   0.67318
 Alpha virt. eigenvalues --    0.67318   0.67453   0.70176   0.73446   0.73446
 Alpha virt. eigenvalues --    0.78264   0.78264   0.84929   0.86524   0.90400

 Mulliken charges and spin densities:
               1          2
     1  O    0.082040   0.000000
     2  O   -0.082040   0.000000
     3  O   -0.082040   0.000000
     4  O    0.082040   0.000000
 Sum of Mulliken charges =   0.00000   0.00000

 Dipole moment (field-independent basis, Debye):
    X=             -0.0000    Y=              0.0000    Z=             -0.0000  Tot=              0.0000
 Quadrupole moment (field-independent basis, Debye-Ang):
   XX=            -20.8633   YY=            -20.8633   ZZ=            -22.7116
   XY=              0.0000   XZ=              0.0000   YZ=              0.0000

 .0343197\CCSD=-299.9914893\CCSD(T)=-300.1757392\RMSD=5.401e-09\PG=D*H
 Normal termination of Gaussian 16 at Sat Jan 14 19:57:46 2023.
