 Gaussian 16, Revision A.03,
 Gaussian 16:  ES64L-G16RevA.03 25-Dec-2016

 ----------------------------------------------------------------------
 #p ROCCSD(T,MaxCyc=350)/cc-pVTZ Guess=Read SCF=(VeryTight,MaxCycle=250
 0,CDIIS,VShift=10)
 ----------------------------------------------------------------------

 ---------
 O2_O2_178
 ---------
 Symbolic Z-matrix:
 Charge =  0 Multiplicity = 1

                         Standard orientation:
 ---------------------------------------------------------------------
 Center     Atomic      Atomic             Coordinates (Angstroms)
 Number     Number       Type             X           Y           Z
 ---------------------------------------------------------------------
      1          8           0        0.000000    0.000000    3.312803
      2          8           0        0.000000    0.000000    4.665183
      3          8           0        0.000000    0.000000   -4.665183
      4          8           0        0.000000    0.000000   -3.312803
 ---------------------------------------------------------------------

 SCF Done:  E(ROHF) =  -298.656302255     A.U. after    6 cycles
 E2 =    -0.3774998630D+01 EUMP2 =    -0.30243130088561D+03
 CCSD(T)
 CCSD(T)= -0.30031046101D+03

 The electronic state is 1-SGG.
 Alpha  occ. eigenvalues --  -20.79167 -20.79166 -20.78472 -20.78472  -1.55884
 Alpha  occ. eigenvalues --   -1.55882  -1.16169  -1.16141  -0.70904  -0.70902
 Alpha  occ. eigenvalues --   -0.66754  -0.66754  -0.66648  -0.66648  -0.31143
 Alpha  occ. eigenvalues --   -0.31143
 Alpha virt. eigenvalues --   -0.24400  -0.24400   0.26265   0.26266   0.67726
 Alpha virt. eigenvalues --    0.67735   0.71680   0.71680   0.71681   0.71681
 Alpha virt. eigenvalues --    0.75338   0.75340   0.81959   0.81959   0.81959

 Mulliken charges and spin densities:
               1          2
     1  O    0.007751  -0.000000
     2  O   -0.007751  -0.000000
     3  O   -0.007751  -0.000000
     4  O    0.007751  -0.000000
 Sum of Mulliken charges =  -0.00000  -0.00000

 Dipole moment (field-independent basis, Debye):
    X=             -0.0000    Y=              0.0000    Z=              0.0000  Tot=              0.0000
 Quadrupole moment (field-independent basis, Debye-Ang):
   XX=            -20.7394   YY=            -20.7394   ZZ=            -21.3005
   XY=              0.0000   XZ=              0.0000   YZ=              0.0000

 2-0=-302.4313009\MP4SDQ=-358.709009\CCSD=-299.958482\CCSD(T)=-300.3104
 Normal termination of Gaussian 16 at Sun Jan 15 06:34:20 2023.
