 Gaussian 16, Revision A.03,
 Gaussian 16:  ES64L-G16RevA.03 25-Dec-2016

 ---------------------------------------------------------------
 #p ROCCSD(T)/cc-pVTZ Guess=Read SCF=(VeryTight,CDIIS,VShift=10)
 ---------------------------------------------------------------

 --------
 O2_O2_78
 --------
 Symbolic Z-matrix:
 Charge =  0 Multiplicity = 1

                         Standard orientation:
 ---------------------------------------------------------------------
 Center     Atomic      Atomic             Coordinates (Angstroms)
 Number     Number       Type             X           Y           Z
 ---------------------------------------------------------------------
      1          8           0        0.000000    0.000000    1.896945
      2          8           0        0.000000    0.000000    3.249325
      3          8           0        0.000000    0.000000   -3.249325
      4          8           0        0.000000    0.000000   -1.896945
 ---------------------------------------------------------------------

 SCF Done:  E(ROHF) =  -298.697631063     A.U. after    7 cycles
 E2 =    -0.2571019608D+01 EUMP2 =    -0.30126865067039D+03
 CCSD(T)
 CCSD(T)= -0.30026562771D+03

 The electronic state is 1-SGG.
 Alpha  occ. eigenvalues --  -20.79853 -20.79852 -20.78041 -20.78041  -1.56005
 Alpha  occ. eigenvalues --   -1.55979  -1.16343  -1.16158  -0.71134  -0.70881
 Alpha  occ. eigenvalues --   -0.67023  -0.67023  -0.66578  -0.66578  -0.33250
 Alpha  occ. eigenvalues --   -0.33250
 Alpha virt. eigenvalues --   -0.22447  -0.22447   0.24435   0.27559   0.60250
 Alpha virt. eigenvalues --    0.70959   0.71280   0.71280   0.71892   0.71892
 Alpha virt. eigenvalues --    0.73450   0.81177   0.81177   0.82686   0.82686

 Mulliken charges and spin densities:
               1          2
     1  O    0.018866   0.000000
     2  O   -0.018866   0.000000
     3  O   -0.018866   0.000000
     4  O    0.018866   0.000000
 Sum of Mulliken charges =  -0.00000   0.00000

 Dipole moment (field-independent basis, Debye):
    X=             -0.0000    Y=             -0.0000    Z=              0.0000  Tot=              0.0000
 Quadrupole moment (field-independent basis, Debye-Ang):
   XX=            -20.7492   YY=            -20.7492   ZZ=            -21.6422
   XY=              0.0000   XZ=              0.0000   YZ=              0.0000

 .0370678\CCSD=-299.9635889\CCSD(T)=-300.2656277\RMSD=6.484e-09\PG=D*H
 Normal termination of Gaussian 16 at Sat Jan 14 21:31:08 2023.
