 Gaussian 16, Revision A.03,
 Gaussian 16:  ES64L-G16RevA.03 25-Dec-2016

 ---------------------------------------------------------------
 #p ROCCSD(T)/cc-pVTZ Guess=Read SCF=(VeryTight,CDIIS,VShift=10)
 ---------------------------------------------------------------

 --------
 O2_O2_88
 --------
 Symbolic Z-matrix:
 Charge =  0 Multiplicity = 1

                         Standard orientation:
 ---------------------------------------------------------------------
 Center     Atomic      Atomic             Coordinates (Angstroms)
 Number     Number       Type             X           Y           Z
 ---------------------------------------------------------------------
      1          8           0        0.000000    0.000000    2.038531
      2          8           0        0.000000    0.000000    3.390911
      3          8           0        0.000000    0.000000   -3.390911
      4          8           0        0.000000    0.000000   -2.038531
 ---------------------------------------------------------------------

 SCF Done:  E(ROHF) =  -298.690802749     A.U. after    7 cycles
 E2 =    -0.2695705815D+01 EUMP2 =    -0.30138650856407D+03
 CCSD(T)
 CCSD(T)= -0.30027272468D+03

 The electronic state is 1-SGG.
 Alpha  occ. eigenvalues --  -20.79688 -20.79687 -20.78106 -20.78106  -1.55962
 Alpha  occ. eigenvalues --   -1.55945  -1.16283  -1.16151  -0.71041  -0.70901
 Alpha  occ. eigenvalues --   -0.66949  -0.66949  -0.66584  -0.66584  -0.32901
 Alpha  occ. eigenvalues --   -0.32901
 Alpha virt. eigenvalues --   -0.22743  -0.22743   0.25070   0.27145   0.62730
 Alpha virt. eigenvalues --    0.70529   0.71474   0.71474   0.71773   0.71773
 Alpha virt. eigenvalues --    0.73880   0.79584   0.81550   0.81550   0.82303

 Mulliken charges and spin densities:
               1          2
     1  O    0.016941   0.000000
     2  O   -0.016941   0.000000
     3  O   -0.016941   0.000000
     4  O    0.016941   0.000000
 Sum of Mulliken charges =  -0.00000   0.00000

 Dipole moment (field-independent basis, Debye):
    X=             -0.0000    Y=             -0.0000    Z=              0.0000  Tot=              0.0000
 Quadrupole moment (field-independent basis, Debye-Ang):
   XX=            -20.7444   YY=            -20.7444   ZZ=            -21.6071
   XY=              0.0000   XZ=              0.0000   YZ=              0.0000

 08.4412494\CCSD=-299.9625045\CCSD(T)=-300.2727247\RMSD=3.900e-09\PG=D*
 Normal termination of Gaussian 16 at Sat Jan 14 21:45:49 2023.
