 Gaussian 16, Revision A.03,
 Gaussian 16:  ES64L-G16RevA.03 25-Dec-2016

 ----------------------------------------------------------------------
 #p ROCCSD(T,MaxCyc=250)/cc-pVTZ Guess=Read SCF=(VeryTight,MaxCycle=250
 0,CDIIS,VShift=10)
 ----------------------------------------------------------------------

 ---------
 O2_O2_106
 ---------
 Symbolic Z-matrix:
 Charge =  0 Multiplicity = 1

                         Standard orientation:
 ---------------------------------------------------------------------
 Center     Atomic      Atomic             Coordinates (Angstroms)
 Number     Number       Type             X           Y           Z
 ---------------------------------------------------------------------
      1          8           0        0.000000    0.000000    2.293385
      2          8           0        0.000000    0.000000    3.645765
      3          8           0        0.000000    0.000000   -3.645765
      4          8           0        0.000000    0.000000   -2.293385
 ---------------------------------------------------------------------

 SCF Done:  E(ROHF) =  -298.680939040     A.U. after    7 cycles
 E2 =    -0.2915518145D+01 EUMP2 =    -0.30159645718518D+03
 CCSD(T)
 CCSD(T)= -0.30028317031D+03

 The electronic state is 1-SGG.
 Alpha  occ. eigenvalues --  -20.79495 -20.79494 -20.78210 -20.78210  -1.55922
 Alpha  occ. eigenvalues --   -1.55912  -1.16226  -1.16143  -0.70959  -0.70913
 Alpha  occ. eigenvalues --   -0.66868  -0.66868  -0.66599  -0.66599  -0.32396
 Alpha  occ. eigenvalues --   -0.32396
 Alpha virt. eigenvalues --   -0.23197  -0.23197   0.25834   0.26604   0.66025
 Alpha virt. eigenvalues --    0.69074   0.71618   0.71618   0.71687   0.71687
 Alpha virt. eigenvalues --    0.74689   0.76271   0.81849   0.81849   0.82027

 Mulliken charges and spin densities:
               1          2
     1  O    0.014127   0.000000
     2  O   -0.014127   0.000000
     3  O   -0.014127   0.000000
     4  O    0.014127   0.000000
 Sum of Mulliken charges =  -0.00000   0.00000

 Dipole moment (field-independent basis, Debye):
    X=             -0.0000    Y=             -0.0000    Z=              0.0000  Tot=              0.0000
 Quadrupole moment (field-independent basis, Debye-Ang):
   XX=            -20.7406   YY=            -20.7406   ZZ=            -21.5369
   XY=              0.0000   XZ=              0.0000   YZ=              0.0000

 -301.5964572\MP4SDQ=-314.0824897\CCSD=-299.961148\CCSD(T)=-300.2831703
 Normal termination of Gaussian 16 at Sun Jan 15 03:15:19 2023.
