 Gaussian 16, Revision A.03,
 Gaussian 16:  ES64L-G16RevA.03 25-Dec-2016

 ---------------------------------------------------------------
 #p ROCCSD(T)/cc-pVTZ Guess=Read SCF=(VeryTight,CDIIS,VShift=10)
 ---------------------------------------------------------------

 -------
 O2_O2_9
 -------
 Symbolic Z-matrix:
 Charge =  0 Multiplicity = 1

                         Standard orientation:
 ---------------------------------------------------------------------
 Center     Atomic      Atomic             Coordinates (Angstroms)
 Number     Number       Type             X           Y           Z
 ---------------------------------------------------------------------
      1          8           0        0.000000    0.000000    0.920002
      2          8           0        0.000000    0.000000    2.272383
      3          8           0        0.000000    0.000000   -2.272383
      4          8           0        0.000000    0.000000   -0.920002
 ---------------------------------------------------------------------

 SCF Done:  E(ROHF) =  -298.816914455     A.U. after   10 cycles
 E2 =    -0.1613432830D+01 EUMP2 =    -0.30043034728556D+03
 CCSD(T)
 CCSD(T)= -0.30016056066D+03

 The electronic state is 1-SGG.
 Alpha  occ. eigenvalues --  -20.84785 -20.84775 -20.75566 -20.75566  -1.58787
 Alpha  occ. eigenvalues --   -1.56271  -1.22845  -1.13137  -0.78295  -0.70409
 Alpha  occ. eigenvalues --   -0.70409  -0.65645  -0.65645  -0.64278  -0.39825
 Alpha  occ. eigenvalues --   -0.39825
 Alpha virt. eigenvalues --   -0.16760  -0.16760   0.23655   0.33693   0.66876
 Alpha virt. eigenvalues --    0.67640   0.67640   0.69530   0.73640   0.73640
 Alpha virt. eigenvalues --    0.78846   0.78846   0.85204   0.85966   0.94382

 Mulliken charges and spin densities:
               1          2
     1  O    0.104811   0.000000
     2  O   -0.104811   0.000000
     3  O   -0.104811   0.000000
     4  O    0.104811   0.000000
 Sum of Mulliken charges =  -0.00000   0.00000

 Dipole moment (field-independent basis, Debye):
    X=             -0.0000    Y=             -0.0000    Z=             -0.0000  Tot=              0.0000
 Quadrupole moment (field-independent basis, Debye-Ang):
   XX=            -20.8441   YY=            -20.8441   ZZ=            -23.3530
   XY=              0.0000   XZ=              0.0000   YZ=              0.0000

 0.0186365\CCSD=-299.9921789\CCSD(T)=-300.1605607\RMSD=1.301e-09\PG=D*H
 Normal termination of Gaussian 16 at Sat Jan 14 19:49:12 2023.
