 Gaussian 16, Revision A.03,
 Gaussian 16:  ES64L-G16RevA.03 25-Dec-2016

 ---------------------------------------------------------------
 #p ROCCSD(T)/cc-pVTZ Guess=Read SCF=(VeryTight,CDIIS,VShift=10)
 ---------------------------------------------------------------

 --------
 O2_O2_63
 --------
 Symbolic Z-matrix:
 Charge =  0 Multiplicity = 1

                         Standard orientation:
 ---------------------------------------------------------------------
 Center     Atomic      Atomic             Coordinates (Angstroms)
 Number     Number       Type             X           Y           Z
 ---------------------------------------------------------------------
      1          8           0        0.000000    0.000000    1.684566
      2          8           0        0.000000    0.000000    3.036946
      3          8           0        0.000000    0.000000   -3.036946
      4          8           0        0.000000    0.000000   -1.684566
 ---------------------------------------------------------------------

 SCF Done:  E(ROHF) =  -298.710758312     A.U. after    7 cycles
 E2 =    -0.2378422097D+01 EUMP2 =    -0.30108918040853D+03
 CCSD(T)
 CCSD(T)= -0.30025232561D+03

 The electronic state is 1-SGG.
 Alpha  occ. eigenvalues --  -20.80237 -20.80236 -20.77926 -20.77926  -1.56122
 Alpha  occ. eigenvalues --   -1.56067  -1.16515  -1.16162  -0.71410  -0.70793
 Alpha  occ. eigenvalues --   -0.67198  -0.67198  -0.66577  -0.66577  -0.33912
 Alpha  occ. eigenvalues --   -0.33912
 Alpha virt. eigenvalues --   -0.21914  -0.21914   0.23583   0.28263   0.58066
 Alpha virt. eigenvalues --    0.70660   0.70660   0.70858   0.72209   0.72209
 Alpha virt. eigenvalues --    0.72951   0.80216   0.80216   0.83877   0.83877

 Mulliken charges and spin densities:
               1          2
     1  O    0.022521   0.000000
     2  O   -0.022521   0.000000
     3  O   -0.022521   0.000000
     4  O    0.022521   0.000000
 Sum of Mulliken charges =  -0.00000   0.00000

 Dipole moment (field-independent basis, Debye):
    X=             -0.0000    Y=              0.0000    Z=              0.0000  Tot=              0.0000
 Quadrupole moment (field-independent basis, Debye-Ang):
   XX=            -20.7630   YY=            -20.7630   ZZ=            -21.6868
   XY=              0.0000   XZ=              0.0000   YZ=              0.0000

 03.2942991\CCSD=-299.9660331\CCSD(T)=-300.2523256\RMSD=6.488e-09\PG=D*
 Normal termination of Gaussian 16 at Sat Jan 14 21:08:40 2023.
