 Gaussian 16, Revision A.03,
 Gaussian 16:  ES64L-G16RevA.03 25-Dec-2016

 ----------------------------------------------------------------------
 #p ROCCSD(T,MaxCyc=250)/cc-pVTZ Guess=Read SCF=(VeryTight,MaxCycle=250
 0,CDIIS,VShift=10)
 ----------------------------------------------------------------------

 ---------
 O2_O2_138
 ---------
 Symbolic Z-matrix:
 Charge =  0 Multiplicity = 1

                         Standard orientation:
 ---------------------------------------------------------------------
 Center     Atomic      Atomic             Coordinates (Angstroms)
 Number     Number       Type             X           Y           Z
 ---------------------------------------------------------------------
      1          8           0        0.000000    0.000000    2.746460
      2          8           0        0.000000    0.000000    4.098840
      3          8           0        0.000000    0.000000   -4.098840
      4          8           0        0.000000    0.000000   -2.746460
 ---------------------------------------------------------------------

 SCF Done:  E(ROHF) =  -298.667961501     A.U. after    6 cycles
 E2 =    -0.3299268292D+01 EUMP2 =    -0.30196722979221D+03
 CCSD(T)
 CCSD(T)= -0.30029732014D+03

 The electronic state is 1-SGG.
 Alpha  occ. eigenvalues --  -20.79304 -20.79304 -20.78354 -20.78353  -1.55896
 Alpha  occ. eigenvalues --   -1.55892  -1.16188  -1.16141  -0.70916  -0.70910
 Alpha  occ. eigenvalues --   -0.66796  -0.66796  -0.66626  -0.66626  -0.31734
 Alpha  occ. eigenvalues --   -0.31734
 Alpha virt. eigenvalues --   -0.23825  -0.23825   0.26224   0.26288   0.67594
 Alpha virt. eigenvalues --    0.67839   0.71669   0.71669   0.71672   0.71672
 Alpha virt. eigenvalues --    0.75282   0.75383   0.81948   0.81948   0.81956

 Mulliken charges and spin densities:
               1          2
     1  O    0.010580   0.000000
     2  O   -0.010580   0.000000
     3  O   -0.010580   0.000000
     4  O    0.010580   0.000000
 Sum of Mulliken charges =  -0.00000   0.00000

 Dipole moment (field-independent basis, Debye):
    X=             -0.0000    Y=             -0.0000    Z=             -0.0000  Tot=              0.0000
 Quadrupole moment (field-independent basis, Debye-Ang):
   XX=            -20.7395   YY=            -20.7395   ZZ=            -21.4169
   XY=              0.0000   XZ=              0.0000   YZ=              0.0000

 0=-301.9672298\MP4SDQ=-329.0338414\CCSD=-299.9596541\CCSD(T)=-300.2973
 Normal termination of Gaussian 16 at Sun Jan 15 04:05:17 2023.
