 Gaussian 16, Revision A.03,
 Gaussian 16:  ES64L-G16RevA.03 25-Dec-2016

 ---------------------------------------------------------------
 #p ROCCSD(T)/cc-pVTZ Guess=Read SCF=(VeryTight,CDIIS,VShift=10)
 ---------------------------------------------------------------

 --------
 O2_O2_29
 --------
 Symbolic Z-matrix:
 Charge =  0 Multiplicity = 1

                         Standard orientation:
 ---------------------------------------------------------------------
 Center     Atomic      Atomic             Coordinates (Angstroms)
 Number     Number       Type             X           Y           Z
 ---------------------------------------------------------------------
      1          8           0        0.000000    0.000000    1.203175
      2          8           0        0.000000    0.000000    2.555555
      3          8           0        0.000000    0.000000   -2.555555
      4          8           0        0.000000    0.000000   -1.203175
 ---------------------------------------------------------------------

 SCF Done:  E(ROHF) =  -298.766867682     A.U. after    8 cycles
 E2 =    -0.1904215704D+01 EUMP2 =    -0.30067108338676D+03
 CCSD(T)
 CCSD(T)= -0.30020349134D+03

 The electronic state is 1-SGG.
 Alpha  occ. eigenvalues --  -20.82333 -20.82329 -20.77290 -20.77289  -1.56934
 Alpha  occ. eigenvalues --   -1.56434  -1.18154  -1.15596  -0.73823  -0.69330
 Alpha  occ. eigenvalues --   -0.68276  -0.68276  -0.66448  -0.66448  -0.36614
 Alpha  occ. eigenvalues --   -0.36614
 Alpha virt. eigenvalues --   -0.19808  -0.19808   0.23649   0.30419   0.67481
 Alpha virt. eigenvalues --    0.67481   0.68577   0.71504   0.73136   0.73136
 Alpha virt. eigenvalues --    0.73357   0.77946   0.77946   0.87473   0.88415

 Mulliken charges and spin densities:
               1          2
     1  O    0.048187   0.000000
     2  O   -0.048187   0.000000
     3  O   -0.048187   0.000000
     4  O    0.048187   0.000000
 Sum of Mulliken charges =   0.00000   0.00000

 Dipole moment (field-independent basis, Debye):
    X=             -0.0000    Y=              0.0000    Z=              0.0000  Tot=              0.0000
 Quadrupole moment (field-independent basis, Debye-Ang):
   XX=            -20.8421   YY=            -20.8421   ZZ=            -21.9772
   XY=              0.0000   XZ=              0.0000   YZ=              0.0000

 00.2947722\CCSD=-299.980985\CCSD(T)=-300.2034913\RMSD=3.520e-09\PG=D*H
 Normal termination of Gaussian 16 at Sat Jan 14 20:18:24 2023.
