 Gaussian 16, Revision A.03,
 Gaussian 16:  ES64L-G16RevA.03 25-Dec-2016

 ---------------------------------------------------------------
 #p ROCCSD(T)/cc-pVTZ Guess=Read SCF=(VeryTight,CDIIS,VShift=10)
 ---------------------------------------------------------------

 --------
 O2_O2_44
 --------
 Symbolic Z-matrix:
 Charge =  0 Multiplicity = 1

                         Standard orientation:
 ---------------------------------------------------------------------
 Center     Atomic      Atomic             Coordinates (Angstroms)
 Number     Number       Type             X           Y           Z
 ---------------------------------------------------------------------
      1          8           0        0.000000    0.000000    1.415553
      2          8           0        0.000000    0.000000    2.767933
      3          8           0        0.000000    0.000000   -2.767933
      4          8           0        0.000000    0.000000   -1.415553
 ---------------------------------------------------------------------

 SCF Done:  E(ROHF) =  -298.735904034     A.U. after    8 cycles
 E2 =    -0.2120510148D+01 EUMP2 =    -0.30085641418228D+03
 CCSD(T)
 CCSD(T)= -0.30022868687D+03

 The electronic state is 1-SGG.
 Alpha  occ. eigenvalues --  -20.81128 -20.81125 -20.77698 -20.77697  -1.56431
 Alpha  occ. eigenvalues --   -1.56259  -1.17053  -1.16053  -0.72271  -0.70380
 Alpha  occ. eigenvalues --   -0.67623  -0.67623  -0.66562  -0.66562  -0.35134
 Alpha  occ. eigenvalues --   -0.35134
 Alpha virt. eigenvalues --   -0.20978  -0.20978   0.23412   0.29292   0.62453
 Alpha virt. eigenvalues --    0.68977   0.68977   0.69746   0.72368   0.72764
 Alpha virt. eigenvalues --    0.72764   0.78653   0.78653   0.86999   0.86999

 Mulliken charges and spin densities:
               1          2
     1  O    0.031375   0.000000
     2  O   -0.031375   0.000000
     3  O   -0.031375   0.000000
     4  O    0.031375   0.000000
 Sum of Mulliken charges =  -0.00000   0.00000

 Dipole moment (field-independent basis, Debye):
    X=             -0.0000    Y=              0.0000    Z=              0.0000  Tot=              0.0000
 Quadrupole moment (field-independent basis, Debye-Ang):
   XX=            -20.7986   YY=            -20.7986   ZZ=            -21.7563
   XY=              0.0000   XZ=              0.0000   YZ=              0.0000

 .1294107\CCSD=-299.9719973\CCSD(T)=-300.2286869\RMSD=2.210e-09\PG=D*H
 Normal termination of Gaussian 16 at Sat Jan 14 20:40:24 2023.
