 Gaussian 16, Revision A.03,
 Gaussian 16:  ES64L-G16RevA.03 25-Dec-2016

 ----------------------------------------------------------------------
 #p ROCCSD(T,MaxCyc=250)/cc-pVTZ Guess=Read SCF=(VeryTight,MaxCycle=250
 0,CDIIS,VShift=10)
 ----------------------------------------------------------------------

 ---------
 O2_O2_156
 ---------
 Symbolic Z-matrix:
 Charge =  0 Multiplicity = 1

                         Standard orientation:
 ---------------------------------------------------------------------
 Center     Atomic      Atomic             Coordinates (Angstroms)
 Number     Number       Type             X           Y           Z
 ---------------------------------------------------------------------
      1          8           0        0.000000    0.000000    3.001315
      2          8           0        0.000000    0.000000    4.353695
      3          8           0        0.000000    0.000000   -4.353695
      4          8           0        0.000000    0.000000   -3.001315
 ---------------------------------------------------------------------

 SCF Done:  E(ROHF) =  -298.662238561     A.U. after    6 cycles
 E2 =    -0.3513625501D+01 EUMP2 =    -0.30217586406225D+03
 CCSD(T)
 CCSD(T)= -0.30030372586D+03

 The electronic state is 1-SGG.
 Alpha  occ. eigenvalues --  -20.79233 -20.79233 -20.78413 -20.78413  -1.55890
 Alpha  occ. eigenvalues --   -1.55887  -1.16177  -1.16141  -0.70909  -0.70906
 Alpha  occ. eigenvalues --   -0.66773  -0.66773  -0.66638  -0.66638  -0.31444
 Alpha  occ. eigenvalues --   -0.31444
 Alpha virt. eigenvalues --   -0.24107  -0.24107   0.26256   0.26267   0.67701
 Alpha virt. eigenvalues --    0.67748   0.71676   0.71676   0.71676   0.71676
 Alpha virt. eigenvalues --    0.75327   0.75344   0.81955   0.81955   0.81956

 Mulliken charges and spin densities:
               1          2
     1  O    0.009142   0.000000
     2  O   -0.009142   0.000000
     3  O   -0.009142   0.000000
     4  O    0.009142   0.000000
 Sum of Mulliken charges =  -0.00000   0.00000

 Dipole moment (field-independent basis, Debye):
    X=             -0.0000    Y=              0.0000    Z=             -0.0000  Tot=              0.0000
 Quadrupole moment (field-independent basis, Debye-Ang):
   XX=            -20.7394   YY=            -20.7394   ZZ=            -21.3601
   XY=              0.0000   XZ=              0.0000   YZ=              0.0000

 2-0=-302.1758641\MP4SDQ=-340.7157199\CCSD=-299.9590663\CCSD(T)=-300.30
 Normal termination of Gaussian 16 at Sun Jan 15 04:33:12 2023.
