 Gaussian 16, Revision A.03,
 Gaussian 16:  ES64L-G16RevA.03 25-Dec-2016

 ----------------------------------------------------------------------
 #p ROCCSD(T,MaxCyc=250)/cc-pVTZ Guess=Read SCF=(VeryTight,MaxCycle=250
 0,CDIIS,VShift=10)
 ----------------------------------------------------------------------

 ---------
 O2_O2_125
 ---------
 Symbolic Z-matrix:
 Charge =  0 Multiplicity = 1

                         Standard orientation:
 ---------------------------------------------------------------------
 Center     Atomic      Atomic             Coordinates (Angstroms)
 Number     Number       Type             X           Y           Z
 ---------------------------------------------------------------------
      1          8           0        0.000000    0.000000    2.562398
      2          8           0        0.000000    0.000000    3.914778
      3          8           0        0.000000    0.000000   -3.914778
      4          8           0        0.000000    0.000000   -2.562398
 ---------------------------------------------------------------------

 SCF Done:  E(ROHF) =  -298.672717129     A.U. after    7 cycles
 E2 =    -0.3143971771D+01 EUMP2 =    -0.30181668890021D+03
 CCSD(T)
 CCSD(T)= -0.30029207704D+03

 The electronic state is 1-SGG.
 Alpha  occ. eigenvalues --  -20.79368 -20.79368 -20.78302 -20.78302  -1.55903
 Alpha  occ. eigenvalues --   -1.55897  -1.16199  -1.16141  -0.70926  -0.70912
 Alpha  occ. eigenvalues --   -0.66819  -0.66819  -0.66616  -0.66616  -0.31977
 Alpha  occ. eigenvalues --   -0.31977
 Alpha virt. eigenvalues --   -0.23592  -0.23592   0.26151   0.26348   0.67325
 Alpha virt. eigenvalues --    0.68078   0.71659   0.71659   0.71671   0.71671
 Alpha virt. eigenvalues --    0.75169   0.75503   0.81932   0.81932   0.81963

 Mulliken charges and spin densities:
               1          2
     1  O    0.011841   0.000000
     2  O   -0.011841   0.000000
     3  O   -0.011841   0.000000
     4  O    0.011841   0.000000
 Sum of Mulliken charges =  -0.00000   0.00000

 Dipole moment (field-independent basis, Debye):
    X=             -0.0000    Y=              0.0000    Z=             -0.0000  Tot=              0.0000
 Quadrupole moment (field-independent basis, Debye-Ang):
   XX=            -20.7396   YY=            -20.7396   ZZ=            -21.4630
   XY=              0.0000   XZ=              0.0000   YZ=              0.0000

 2-0=-301.8166889\MP4SDQ=-322.1252145\CCSD=-299.9601723\CCSD(T)=-300.29
 Normal termination of Gaussian 16 at Sun Jan 15 03:45:06 2023.
