 Gaussian 16, Revision A.03,
 Gaussian 16:  ES64L-G16RevA.03 25-Dec-2016

 ----------------------------------------------------------------------
 #p ROCCSD(T,MaxCyc=250)/cc-pVTZ Guess=Read SCF=(VeryTight,MaxCycle=250
 0,CDIIS,VShift=10)
 ----------------------------------------------------------------------

 ---------
 O2_O2_149
 ---------
 Symbolic Z-matrix:
 Charge =  0 Multiplicity = 1

                         Standard orientation:
 ---------------------------------------------------------------------
 Center     Atomic      Atomic             Coordinates (Angstroms)
 Number     Number       Type             X           Y           Z
 ---------------------------------------------------------------------
      1          8           0        0.000000    0.000000    2.902204
      2          8           0        0.000000    0.000000    4.254584
      3          8           0        0.000000    0.000000   -4.254584
      4          8           0        0.000000    0.000000   -2.902204
 ---------------------------------------------------------------------

 SCF Done:  E(ROHF) =  -298.664359278     A.U. after    6 cycles
 E2 =    -0.3430332003D+01 EUMP2 =    -0.30209469128126D+03
 CCSD(T)
 CCSD(T)= -0.30030133528D+03

 The electronic state is 1-SGG.
 Alpha  occ. eigenvalues --  -20.79259 -20.79259 -20.78392 -20.78392  -1.55892
 Alpha  occ. eigenvalues --   -1.55888  -1.16181  -1.16141  -0.70911  -0.70907
 Alpha  occ. eigenvalues --   -0.66782  -0.66782  -0.66634  -0.66634  -0.31551
 Alpha  occ. eigenvalues --   -0.31551
 Alpha virt. eigenvalues --   -0.24002  -0.24002   0.26248   0.26271   0.67678
 Alpha virt. eigenvalues --    0.67766   0.71674   0.71674   0.71675   0.71675
 Alpha virt. eigenvalues --    0.75317   0.75352   0.81953   0.81953   0.81956

 Mulliken charges and spin densities:
               1          2
     1  O    0.009664   0.000000
     2  O   -0.009664   0.000000
     3  O   -0.009664   0.000000
     4  O    0.009664   0.000000
 Sum of Mulliken charges =  -0.00000   0.00000

 Dipole moment (field-independent basis, Debye):
    X=             -0.0000    Y=             -0.0000    Z=             -0.0000  Tot=              0.0000
 Quadrupole moment (field-independent basis, Debye-Ang):
   XX=            -20.7394   YY=            -20.7394   ZZ=            -21.3813
   XY=              0.0000   XZ=              0.0000   YZ=              0.0000

 2-0=-302.0946913\MP4SDQ=-335.8656281\CCSD=-299.9592777\CCSD(T)=-300.30
 Normal termination of Gaussian 16 at Sun Jan 15 04:22:46 2023.
