 Gaussian 16, Revision A.03,
 Gaussian 16:  ES64L-G16RevA.03 25-Dec-2016

 ---------------------------------------------------------------
 #p ROCCSD(T)/cc-pVTZ Guess=Read SCF=(VeryTight,CDIIS,VShift=10)
 ---------------------------------------------------------------

 --------
 O2_O2_46
 --------
 Symbolic Z-matrix:
 Charge =  0 Multiplicity = 1

                         Standard orientation:
 ---------------------------------------------------------------------
 Center     Atomic      Atomic             Coordinates (Angstroms)
 Number     Number       Type             X           Y           Z
 ---------------------------------------------------------------------
      1          8           0        0.000000    0.000000    1.443871
      2          8           0        0.000000    0.000000    2.796251
      3          8           0        0.000000    0.000000   -2.796251
      4          8           0        0.000000    0.000000   -1.443871
 ---------------------------------------------------------------------

 SCF Done:  E(ROHF) =  -298.732619999     A.U. after    8 cycles
 E2 =    -0.2148523096D+01 EUMP2 =    -0.30088114309501D+03
 CCSD(T)
 CCSD(T)= -0.30023161224D+03

 The electronic state is 1-SGG.
 Alpha  occ. eigenvalues --  -20.81005 -20.81002 -20.77731 -20.77730  -1.56386
 Alpha  occ. eigenvalues --   -1.56235  -1.16967  -1.16079  -0.72137  -0.70454
 Alpha  occ. eigenvalues --   -0.67562  -0.67562  -0.66566  -0.66566  -0.34977
 Alpha  occ. eigenvalues --   -0.34977
 Alpha virt. eigenvalues --   -0.21098  -0.21098   0.23388   0.29170   0.61512
 Alpha virt. eigenvalues --    0.69197   0.69197   0.69898   0.72443   0.72707
 Alpha virt. eigenvalues --    0.72707   0.78802   0.78802   0.86581   0.86581

 Mulliken charges and spin densities:
               1          2
     1  O    0.030000   0.000000
     2  O   -0.030000   0.000000
     3  O   -0.030000   0.000000
     4  O    0.030000   0.000000
 Sum of Mulliken charges =   0.00000   0.00000

 Dipole moment (field-independent basis, Debye):
    X=             -0.0000    Y=              0.0000    Z=             -0.0000  Tot=              0.0000
 Quadrupole moment (field-independent basis, Debye-Ang):
   XX=            -20.7937   YY=            -20.7937   ZZ=            -21.7442
   XY=              0.0000   XZ=              0.0000   YZ=              0.0000

 94903\CCSD=-299.9711332\CCSD(T)=-300.2316122\RMSD=2.112e-09\PG=D*H [C*
 Normal termination of Gaussian 16 at Sat Jan 14 20:43:13 2023.
