 Gaussian 16, Revision A.03,
 Gaussian 16:  ES64L-G16RevA.03 25-Dec-2016

 ----------------------------------------------------------------------
 #p ROCCSD(T,MaxCyc=350)/cc-pVTZ Guess=Read SCF=(VeryTight,MaxCycle=250
 0,CDIIS,VShift=10)
 ----------------------------------------------------------------------

 ---------
 O2_O2_176
 ---------
 Symbolic Z-matrix:
 Charge =  0 Multiplicity = 1

                         Standard orientation:
 ---------------------------------------------------------------------
 Center     Atomic      Atomic             Coordinates (Angstroms)
 Number     Number       Type             X           Y           Z
 ---------------------------------------------------------------------
      1          8           0        0.000000    0.000000    3.284486
      2          8           0        0.000000    0.000000    4.636866
      3          8           0        0.000000    0.000000   -4.636866
      4          8           0        0.000000    0.000000   -3.284486
 ---------------------------------------------------------------------

 SCF Done:  E(ROHF) =  -298.656801097     A.U. after    6 cycles
 E2 =    -0.3751258972D+01 EUMP2 =    -0.30240806006873D+03
 CCSD(T)
 CCSD(T)= -0.30030990132D+03

 The electronic state is 1-SGG.
 Alpha  occ. eigenvalues --  -20.79172 -20.79172 -20.78467 -20.78467  -1.55885
 Alpha  occ. eigenvalues --   -1.55883  -1.16170  -1.16141  -0.70904  -0.70902
 Alpha  occ. eigenvalues --   -0.66755  -0.66755  -0.66647  -0.66647  -0.31168
 Alpha  occ. eigenvalues --   -0.31168
 Alpha virt. eigenvalues --   -0.24376  -0.24376   0.26265   0.26266   0.67725
 Alpha virt. eigenvalues --    0.67735   0.71680   0.71680   0.71680   0.71680
 Alpha virt. eigenvalues --    0.75337   0.75340   0.81959   0.81959   0.81959

 Mulliken charges and spin densities:
               1          2
     1  O    0.007864  -0.000000
     2  O   -0.007864  -0.000000
     3  O   -0.007864  -0.000000
     4  O    0.007864  -0.000000
 Sum of Mulliken charges =  -0.00000  -0.00000

 Dipole moment (field-independent basis, Debye):
    X=             -0.0000    Y=             -0.0000    Z=             -0.0000  Tot=              0.0000
 Quadrupole moment (field-independent basis, Debye-Ang):
   XX=            -20.7394   YY=            -20.7394   ZZ=            -21.3055
   XY=              0.0000   XZ=              0.0000   YZ=              0.0000

 2-0=-302.4080601\MP4SDQ=-356.8922059\CCSD=-299.9585349\CCSD(T)=-300.30
 Normal termination of Gaussian 16 at Sun Jan 15 06:28:09 2023.
