 Gaussian 16, Revision A.03,
 Gaussian 16:  ES64L-G16RevA.03 25-Dec-2016

 ---------------------------------------------------------------
 #p ROCCSD(T)/cc-pVTZ Guess=Read SCF=(VeryTight,CDIIS,VShift=10)
 ---------------------------------------------------------------

 --------
 O2_O2_93
 --------
 Symbolic Z-matrix:
 Charge =  0 Multiplicity = 1

                         Standard orientation:
 ---------------------------------------------------------------------
 Center     Atomic      Atomic             Coordinates (Angstroms)
 Number     Number       Type             X           Y           Z
 ---------------------------------------------------------------------
      1          8           0        0.000000    0.000000    2.109323
      2          8           0        0.000000    0.000000    3.461704
      3          8           0        0.000000    0.000000   -3.461704
      4          8           0        0.000000    0.000000   -2.109323
 ---------------------------------------------------------------------

 SCF Done:  E(ROHF) =  -298.687796390     A.U. after    7 cycles
 E2 =    -0.2757255363D+01 EUMP2 =    -0.30144505175219D+03
 CCSD(T)
 CCSD(T)= -0.30027588221D+03

 The electronic state is 1-SGG.
 Alpha  occ. eigenvalues --  -20.79624 -20.79623 -20.78137 -20.78137  -1.55947
 Alpha  occ. eigenvalues --   -1.55933  -1.16262  -1.16148  -0.71010  -0.70906
 Alpha  occ. eigenvalues --   -0.66922  -0.66922  -0.66587  -0.66587  -0.32747
 Alpha  occ. eigenvalues --   -0.32747
 Alpha virt. eigenvalues --   -0.22878  -0.22878   0.25339   0.26964   0.63875
 Alpha virt. eigenvalues --    0.70166   0.71533   0.71533   0.71737   0.71737
 Alpha virt. eigenvalues --    0.74115   0.78189   0.81671   0.81671   0.82187

 Mulliken charges and spin densities:
               1          2
     1  O    0.016083   0.000000
     2  O   -0.016083   0.000000
     3  O   -0.016083   0.000000
     4  O    0.016083   0.000000
 Sum of Mulliken charges =  -0.00000   0.00000

 Dipole moment (field-independent basis, Debye):
    X=             -0.0000    Y=             -0.0000    Z=              0.0000  Tot=              0.0000
 Quadrupole moment (field-independent basis, Debye-Ang):
   XX=            -20.7429   YY=            -20.7429   ZZ=            -21.5883
   XY=              0.0000   XZ=              0.0000   YZ=              0.0000

 09.8316069\CCSD=-299.9620656\CCSD(T)=-300.2758822\RMSD=3.097e-09\PG=D*
 Normal termination of Gaussian 16 at Sat Jan 14 21:53:57 2023.
