 Gaussian 16, Revision A.03,
 Gaussian 16:  ES64L-G16RevA.03 25-Dec-2016

 ---------------------------------------------------------------
 #p ROCCSD(T)/cc-pVTZ Guess=Read SCF=(VeryTight,CDIIS,VShift=10)
 ---------------------------------------------------------------

 --------
 O2_O2_61
 --------
 Symbolic Z-matrix:
 Charge =  0 Multiplicity = 1

                         Standard orientation:
 ---------------------------------------------------------------------
 Center     Atomic      Atomic             Coordinates (Angstroms)
 Number     Number       Type             X           Y           Z
 ---------------------------------------------------------------------
      1          8           0        0.000000    0.000000    1.656249
      2          8           0        0.000000    0.000000    3.008629
      3          8           0        0.000000    0.000000   -3.008629
      4          8           0        0.000000    0.000000   -1.656249
 ---------------------------------------------------------------------

 SCF Done:  E(ROHF) =  -298.712866487     A.U. after    7 cycles
 E2 =    -0.2352090799D+01 EUMP2 =    -0.30106495728577D+03
 CCSD(T)
 CCSD(T)= -0.30025024322D+03

 The electronic state is 1-SGG.
 Alpha  occ. eigenvalues --  -20.80306 -20.80304 -20.77908 -20.77908  -1.56144
 Alpha  occ. eigenvalues --   -1.56083  -1.16549  -1.16159  -0.71466  -0.70772
 Alpha  occ. eigenvalues --   -0.67229  -0.67229  -0.66577  -0.66577  -0.34017
 Alpha  occ. eigenvalues --   -0.34017
 Alpha virt. eigenvalues --   -0.21833  -0.21833   0.23512   0.28362   0.58084
 Alpha virt. eigenvalues --    0.70534   0.70534   0.70787   0.72264   0.72264
 Alpha virt. eigenvalues --    0.72894   0.80054   0.80054   0.84113   0.84113

 Mulliken charges and spin densities:
               1          2
     1  O    0.023133   0.000000
     2  O   -0.023133   0.000000
     3  O   -0.023133   0.000000
     4  O    0.023133   0.000000
 Sum of Mulliken charges =  -0.00000   0.00000

 Dipole moment (field-independent basis, Debye):
    X=             -0.0000    Y=             -0.0000    Z=              0.0000  Tot=              0.0000
 Quadrupole moment (field-independent basis, Debye-Ang):
   XX=            -20.7657   YY=            -20.7657   ZZ=            -21.6921
   XY=              0.0000   XZ=              0.0000   YZ=              0.0000

 03.0009541\CCSD=-299.9664713\CCSD(T)=-300.2502432\RMSD=8.737e-09\PG=D*
 Normal termination of Gaussian 16 at Sat Jan 14 21:05:34 2023.
