 Gaussian 16, Revision A.03,
 Gaussian 16:  ES64L-G16RevA.03 25-Dec-2016

 ---------------------------------------------------------------
 #p ROCCSD(T)/cc-pVTZ Guess=Read SCF=(VeryTight,CDIIS,VShift=10)
 ---------------------------------------------------------------

 --------
 O2_O2_73
 --------
 Symbolic Z-matrix:
 Charge =  0 Multiplicity = 1

                         Standard orientation:
 ---------------------------------------------------------------------
 Center     Atomic      Atomic             Coordinates (Angstroms)
 Number     Number       Type             X           Y           Z
 ---------------------------------------------------------------------
      1          8           0        0.000000    0.000000    1.826152
      2          8           0        0.000000    0.000000    3.178532
      3          8           0        0.000000    0.000000   -3.178532
      4          8           0        0.000000    0.000000   -1.826152
 ---------------------------------------------------------------------

 SCF Done:  E(ROHF) =  -298.701553056     A.U. after    7 cycles
 E2 =    -0.2507680030D+01 EUMP2 =    -0.30120923308534D+03
 CCSD(T)
 CCSD(T)= -0.30026160092D+03

 The electronic state is 1-SGG.
 Alpha  occ. eigenvalues --  -20.79960 -20.79958 -20.78005 -20.78005  -1.56036
 Alpha  occ. eigenvalues --   -1.56003  -1.16387  -1.16162  -0.71203  -0.70862
 Alpha  occ. eigenvalues --   -0.67071  -0.67071  -0.66577  -0.66577  -0.33449
 Alpha  occ. eigenvalues --   -0.33449
 Alpha virt. eigenvalues --   -0.22283  -0.22283   0.24109   0.27785   0.59170
 Alpha virt. eigenvalues --    0.71017   0.71128   0.71128   0.71979   0.71979
 Alpha virt. eigenvalues --    0.73265   0.80912   0.80912   0.82984   0.82984

 Mulliken charges and spin densities:
               1          2
     1  O    0.019953   0.000000
     2  O   -0.019953   0.000000
     3  O   -0.019953   0.000000
     4  O    0.019953   0.000000
 Sum of Mulliken charges =  -0.00000   0.00000

 Dipole moment (field-independent basis, Debye):
    X=             -0.0000    Y=             -0.0000    Z=              0.0000  Tot=              0.0000
 Quadrupole moment (field-independent basis, Debye-Ang):
   XX=            -20.7527   YY=            -20.7527   ZZ=            -21.6582
   XY=              0.0000   XZ=              0.0000   YZ=              0.0000

 05.012664\CCSD=-299.9642687\CCSD(T)=-300.2616009\RMSD=7.848e-09\PG=D*H
 Normal termination of Gaussian 16 at Sat Jan 14 21:24:05 2023.
