 Gaussian 16, Revision A.03,
 Gaussian 16:  ES64L-G16RevA.03 25-Dec-2016

 ----------------------------------------------------------------------
 #p ROCCSD(T,MaxCyc=250)/cc-pVTZ Guess=Read SCF=(VeryTight,MaxCycle=250
 0,CDIIS,VShift=10)
 ----------------------------------------------------------------------

 ---------
 O2_O2_123
 ---------
 Symbolic Z-matrix:
 Charge =  0 Multiplicity = 1

                         Standard orientation:
 ---------------------------------------------------------------------
 Center     Atomic      Atomic             Coordinates (Angstroms)
 Number     Number       Type             X           Y           Z
 ---------------------------------------------------------------------
      1          8           0        0.000000    0.000000    2.534081
      2          8           0        0.000000    0.000000    3.886461
      3          8           0        0.000000    0.000000   -3.886461
      4          8           0        0.000000    0.000000   -2.534081
 ---------------------------------------------------------------------

 SCF Done:  E(ROHF) =  -298.673504256     A.U. after    7 cycles
 E2 =    -0.3120025329D+01 EUMP2 =    -0.30179352958540D+03
 CCSD(T)
 CCSD(T)= -0.30029121589D+03

 The electronic state is 1-SGG.
 Alpha  occ. eigenvalues --  -20.79379 -20.79379 -20.78293 -20.78293  -1.55904
 Alpha  occ. eigenvalues --   -1.55898  -1.16201  -1.16141  -0.70929  -0.70913
 Alpha  occ. eigenvalues --   -0.66823  -0.66823  -0.66614  -0.66614  -0.32017
 Alpha  occ. eigenvalues --   -0.32017
 Alpha virt. eigenvalues --   -0.23554  -0.23554   0.26133   0.26363   0.67254
 Alpha virt. eigenvalues --    0.68140   0.71657   0.71657   0.71672   0.71672
 Alpha virt. eigenvalues --    0.75140   0.75537   0.81928   0.81928   0.81965

 Mulliken charges and spin densities:
               1          2
     1  O    0.012054  -0.000000
     2  O   -0.012054   0.000000
     3  O   -0.012054   0.000000
     4  O    0.012054   0.000000
 Sum of Mulliken charges =  -0.00000   0.00000

 Dipole moment (field-independent basis, Debye):
    X=             -0.0000    Y=             -0.0000    Z=              0.0000  Tot=              0.0000
 Quadrupole moment (field-independent basis, Debye-Ang):
   XX=            -20.7397   YY=            -20.7397   ZZ=            -21.4705
   XY=              0.0000   XZ=              0.0000   YZ=              0.0000

 2-0=-301.7935296\MP4SDQ=-321.1679642\CCSD=-299.9602609\CCSD(T)=-300.29
 Normal termination of Gaussian 16 at Sun Jan 15 03:41:43 2023.
