 Gaussian 16, Revision A.03,
 Gaussian 16:  ES64L-G16RevA.03 25-Dec-2016

 ---------------------------------------------------------------
 #p ROCCSD(T)/cc-pVTZ Guess=Read SCF=(VeryTight,CDIIS,VShift=10)
 ---------------------------------------------------------------

 -------
 O2_O2_4
 -------
 Symbolic Z-matrix:
 Charge =  0 Multiplicity = 1

                         Standard orientation:
 ---------------------------------------------------------------------
 Center     Atomic      Atomic             Coordinates (Angstroms)
 Number     Number       Type             X           Y           Z
 ---------------------------------------------------------------------
      1          8           0        0.000000    0.000000    0.849210
      2          8           0        0.000000    0.000000    2.201590
      3          8           0        0.000000    0.000000   -2.201590
      4          8           0        0.000000    0.000000   -0.849210
 ---------------------------------------------------------------------

 SCF Done:  E(ROHF) =  -298.820240122     A.U. after   10 cycles
 E2 =    -0.1549530989D+01 EUMP2 =    -0.30036977111129D+03
 CCSD(T)
 CCSD(T)= -0.30014230401D+03

 The electronic state is 1-SGG.
 Alpha  occ. eigenvalues --  -20.85602 -20.85588 -20.74663 -20.74663  -1.60007
 Alpha  occ. eigenvalues --   -1.56030  -1.25389  -1.11852  -0.79904  -0.71616
 Alpha  occ. eigenvalues --   -0.71616  -0.65183  -0.65183  -0.61368  -0.40910
 Alpha  occ. eigenvalues --   -0.40910
 Alpha virt. eigenvalues --   -0.15519  -0.15519   0.23410   0.35426   0.66321
 Alpha virt. eigenvalues --    0.67861   0.67861   0.68881   0.73869   0.73869
 Alpha virt. eigenvalues --    0.79596   0.79596   0.84419   0.85417   0.95029

 Mulliken charges and spin densities:
               1          2
     1  O    0.130447   0.000000
     2  O   -0.130447   0.000000
     3  O   -0.130447   0.000000
     4  O    0.130447   0.000000
 Sum of Mulliken charges =  -0.00000   0.00000

 Dipole moment (field-independent basis, Debye):
    X=             -0.0000    Y=             -0.0000    Z=              0.0000  Tot=              0.0000
 Quadrupole moment (field-independent basis, Debye-Ang):
   XX=            -20.8019   YY=            -20.8019   ZZ=            -24.1268
   XY=              0.0000   XZ=              0.0000   YZ=              0.0000

 0256927\CCSD=-299.9858153\CCSD(T)=-300.142304\RMSD=1.275e-09\PG=D*H [C
 Normal termination of Gaussian 16 at Sat Jan 14 19:42:21 2023.
