 Gaussian 16, Revision A.03,
 Gaussian 16:  ES64L-G16RevA.03 25-Dec-2016

 ---------------------------------------------------------------
 #p ROCCSD(T)/cc-pVTZ Guess=Read SCF=(VeryTight,CDIIS,VShift=10)
 ---------------------------------------------------------------

 --------
 O2_O2_98
 --------
 Symbolic Z-matrix:
 Charge =  0 Multiplicity = 1

                         Standard orientation:
 ---------------------------------------------------------------------
 Center     Atomic      Atomic             Coordinates (Angstroms)
 Number     Number       Type             X           Y           Z
 ---------------------------------------------------------------------
      1          8           0        0.000000    0.000000    2.180117
      2          8           0        0.000000    0.000000    3.532497
      3          8           0        0.000000    0.000000   -3.532497
      4          8           0        0.000000    0.000000   -2.180117
 ---------------------------------------------------------------------

 SCF Done:  E(ROHF) =  -298.685010551     A.U. after    7 cycles
 E2 =    -0.2818390137D+01 EUMP2 =    -0.30150340068796D+03
 CCSD(T)
 CCSD(T)= -0.30027882793D+03

 The electronic state is 1-SGG.
 Alpha  occ. eigenvalues --  -20.79569 -20.79568 -20.78166 -20.78166  -1.55935
 Alpha  occ. eigenvalues --   -1.55923  -1.16245  -1.16146  -0.70986  -0.70910
 Alpha  occ. eigenvalues --   -0.66898  -0.66898  -0.66591  -0.66591  -0.32605
 Alpha  occ. eigenvalues --   -0.32605
 Alpha virt. eigenvalues --   -0.23006  -0.23006   0.25564   0.26807   0.64853
 Alpha virt. eigenvalues --    0.69745   0.71575   0.71575   0.71711   0.71711
 Alpha virt. eigenvalues --    0.74350   0.77211   0.81759   0.81759   0.82106

 Mulliken charges and spin densities:
               1          2
     1  O    0.015287   0.000000
     2  O   -0.015287   0.000000
     3  O   -0.015287   0.000000
     4  O    0.015287   0.000000
 Sum of Mulliken charges =  -0.00000   0.00000

 Dipole moment (field-independent basis, Debye):
    X=             -0.0000    Y=              0.0000    Z=             -0.0000  Tot=              0.0000
 Quadrupole moment (field-independent basis, Debye-Ang):
   XX=            -20.7418   YY=            -20.7418   ZZ=            -21.5688
   XY=              0.0000   XZ=              0.0000   YZ=              0.0000

 11.3548007\CCSD=-299.9616793\CCSD(T)=-300.2788279\RMSD=2.646e-09\PG=D*
 Normal termination of Gaussian 16 at Sat Jan 14 22:02:29 2023.
