 Gaussian 16, Revision A.03,
 Gaussian 16:  ES64L-G16RevA.03 25-Dec-2016

 ---------------------------------------------------------------
 #p ROCCSD(T)/cc-pVTZ Guess=Read SCF=(VeryTight,CDIIS,VShift=10)
 ---------------------------------------------------------------

 --------
 O2_O2_87
 --------
 Symbolic Z-matrix:
 Charge =  0 Multiplicity = 1

                         Standard orientation:
 ---------------------------------------------------------------------
 Center     Atomic      Atomic             Coordinates (Angstroms)
 Number     Number       Type             X           Y           Z
 ---------------------------------------------------------------------
      1          8           0        0.000000    0.000000    2.024372
      2          8           0        0.000000    0.000000    3.376752
      3          8           0        0.000000    0.000000   -3.376752
      4          8           0        0.000000    0.000000   -2.024372
 ---------------------------------------------------------------------

 SCF Done:  E(ROHF) =  -298.691433554     A.U. after    7 cycles
 E2 =    -0.2683339147D+01 EUMP2 =    -0.30137477270096D+03
 CCSD(T)
 CCSD(T)= -0.30027206493D+03

 The electronic state is 1-SGG.
 Alpha  occ. eigenvalues --  -20.79702 -20.79701 -20.78100 -20.78100  -1.55965
 Alpha  occ. eigenvalues --   -1.55947  -1.16288  -1.16152  -0.71048  -0.70900
 Alpha  occ. eigenvalues --   -0.66956  -0.66956  -0.66583  -0.66583  -0.32933
 Alpha  occ. eigenvalues --   -0.32933
 Alpha virt. eigenvalues --   -0.22715  -0.22715   0.25012   0.27183   0.62486
 Alpha virt. eigenvalues --    0.70591   0.71460   0.71460   0.71782   0.71782
 Alpha virt. eigenvalues --    0.73834   0.79921   0.81521   0.81521   0.82331

 Mulliken charges and spin densities:
               1          2
     1  O    0.017121   0.000000
     2  O   -0.017121   0.000000
     3  O   -0.017121   0.000000
     4  O    0.017121   0.000000
 Sum of Mulliken charges =   0.00000   0.00000

 Dipole moment (field-independent basis, Debye):
    X=             -0.0000    Y=              0.0000    Z=              0.0000  Tot=              0.0000
 Quadrupole moment (field-independent basis, Debye-Ang):
   XX=            -20.7447   YY=            -20.7447   ZZ=            -21.6108
   XY=              0.0000   XZ=              0.0000   YZ=              0.0000

 08.17863\CCSD=-299.9625996\CCSD(T)=-300.2720649\RMSD=4.111e-09\PG=D*H
 Normal termination of Gaussian 16 at Sat Jan 14 21:44:20 2023.
