 Gaussian 16, Revision A.03,
 Gaussian 16:  ES64L-G16RevA.03 25-Dec-2016

 ----------------------------------------------------------------------
 #p ROCCSD(T,MaxCyc=250)/cc-pVTZ Guess=Read SCF=(VeryTight,MaxCycle=250
 0,CDIIS,VShift=10)
 ----------------------------------------------------------------------

 ---------
 O2_O2_124
 ---------
 Symbolic Z-matrix:
 Charge =  0 Multiplicity = 1

                         Standard orientation:
 ---------------------------------------------------------------------
 Center     Atomic      Atomic             Coordinates (Angstroms)
 Number     Number       Type             X           Y           Z
 ---------------------------------------------------------------------
      1          8           0        0.000000    0.000000    2.548240
      2          8           0        0.000000    0.000000    3.900620
      3          8           0        0.000000    0.000000   -3.900620
      4          8           0        0.000000    0.000000   -2.548240
 ---------------------------------------------------------------------

 SCF Done:  E(ROHF) =  -298.673108677     A.U. after    7 cycles
 E2 =    -0.3132000777D+01 EUMP2 =    -0.30180510945341D+03
 CCSD(T)
 CCSD(T)= -0.30029164999D+03

 The electronic state is 1-SGG.
 Alpha  occ. eigenvalues --  -20.79374 -20.79373 -20.78297 -20.78297  -1.55904
 Alpha  occ. eigenvalues --   -1.55898  -1.16200  -1.16141  -0.70927  -0.70912
 Alpha  occ. eigenvalues --   -0.66821  -0.66821  -0.66615  -0.66615  -0.31996
 Alpha  occ. eigenvalues --   -0.31996
 Alpha virt. eigenvalues --   -0.23573  -0.23573   0.26143   0.26355   0.67290
 Alpha virt. eigenvalues --    0.68108   0.71658   0.71658   0.71671   0.71671
 Alpha virt. eigenvalues --    0.75155   0.75519   0.81930   0.81930   0.81964

 Mulliken charges and spin densities:
               1          2
     1  O    0.011947   0.000000
     2  O   -0.011947   0.000000
     3  O   -0.011947   0.000000
     4  O    0.011947   0.000000
 Sum of Mulliken charges =  -0.00000   0.00000

 Dipole moment (field-independent basis, Debye):
    X=             -0.0000    Y=              0.0000    Z=             -0.0000  Tot=              0.0000
 Quadrupole moment (field-independent basis, Debye-Ang):
   XX=            -20.7396   YY=            -20.7396   ZZ=            -21.4667
   XY=              0.0000   XZ=              0.0000   YZ=              0.0000

 2-0=-301.8051095\MP4SDQ=-321.6431855\CCSD=-299.960217\CCSD(T)=-300.291
 Normal termination of Gaussian 16 at Sun Jan 15 03:43:21 2023.
