 Gaussian 16, Revision A.03,
 Gaussian 16:  ES64L-G16RevA.03 25-Dec-2016

 ---------------------------------------------------------------
 #p ROCCSD(T)/cc-pVTZ Guess=Read SCF=(VeryTight,CDIIS,VShift=10)
 ---------------------------------------------------------------

 --------
 O2_O2_92
 --------
 Symbolic Z-matrix:
 Charge =  0 Multiplicity = 1

                         Standard orientation:
 ---------------------------------------------------------------------
 Center     Atomic      Atomic             Coordinates (Angstroms)
 Number     Number       Type             X           Y           Z
 ---------------------------------------------------------------------
      1          8           0        0.000000    0.000000    2.095165
      2          8           0        0.000000    0.000000    3.447545
      3          8           0        0.000000    0.000000   -3.447545
      4          8           0        0.000000    0.000000   -2.095165
 ---------------------------------------------------------------------

 SCF Done:  E(ROHF) =  -298.688378952     A.U. after    7 cycles
 E2 =    -0.2744981203D+01 EUMP2 =    -0.30143336015488D+03
 CCSD(T)
 CCSD(T)= -0.30027526947D+03

 The electronic state is 1-SGG.
 Alpha  occ. eigenvalues --  -20.79636 -20.79635 -20.78131 -20.78131  -1.55950
 Alpha  occ. eigenvalues --   -1.55935  -1.16266  -1.16149  -0.71015  -0.70906
 Alpha  occ. eigenvalues --   -0.66927  -0.66927  -0.66586  -0.66586  -0.32777
 Alpha  occ. eigenvalues --   -0.32777
 Alpha virt. eigenvalues --   -0.22852  -0.22852   0.25288   0.26999   0.63658
 Alpha virt. eigenvalues --    0.70245   0.71523   0.71523   0.71743   0.71743
 Alpha virt. eigenvalues --    0.74068   0.78431   0.81650   0.81650   0.82207

 Mulliken charges and spin densities:
               1          2
     1  O    0.016250   0.000000
     2  O   -0.016250   0.000000
     3  O   -0.016250   0.000000
     4  O    0.016250   0.000000
 Sum of Mulliken charges =  -0.00000   0.00000

 Dipole moment (field-independent basis, Debye):
    X=             -0.0000    Y=              0.0000    Z=             -0.0000  Tot=              0.0000
 Quadrupole moment (field-independent basis, Debye-Ang):
   XX=            -20.7431   YY=            -20.7431   ZZ=            -21.5921
   XY=              0.0000   XZ=              0.0000   YZ=              0.0000

 30901\CCSD=-299.9621492\CCSD(T)=-300.2752695\RMSD=3.225e-09\PG=D*H [C*
 Normal termination of Gaussian 16 at Sat Jan 14 21:52:27 2023.
