 Gaussian 16, Revision A.03,
 Gaussian 16:  ES64L-G16RevA.03 25-Dec-2016

 ---------------------------------------------------------------
 #p ROCCSD(T)/cc-pVTZ Guess=Read SCF=(VeryTight,CDIIS,VShift=10)
 ---------------------------------------------------------------

 --------
 O2_O2_37
 --------
 Symbolic Z-matrix:
 Charge =  0 Multiplicity = 1

                         Standard orientation:
 ---------------------------------------------------------------------
 Center     Atomic      Atomic             Coordinates (Angstroms)
 Number     Number       Type             X           Y           Z
 ---------------------------------------------------------------------
      1          8           0        0.000000    0.000000    1.316443
      2          8           0        0.000000    0.000000    2.668823
      3          8           0        0.000000    0.000000   -2.668823
      4          8           0        0.000000    0.000000   -1.316443
 ---------------------------------------------------------------------

 SCF Done:  E(ROHF) =  -298.748902657     A.U. after    8 cycles
 E2 =    -0.2020845655D+01 EUMP2 =    -0.30076974831254D+03
 CCSD(T)
 CCSD(T)= -0.30021760675D+03

 The electronic state is 1-SGG.
 Alpha  occ. eigenvalues --  -20.81625 -20.81622 -20.77551 -20.77550  -1.56625
 Alpha  occ. eigenvalues --   -1.56346  -1.17447  -1.15912  -0.72858  -0.70022
 Alpha  occ. eigenvalues --   -0.67878  -0.67878  -0.66531  -0.66531  -0.35751
 Alpha  occ. eigenvalues --   -0.35751
 Alpha virt. eigenvalues --   -0.20501  -0.20501   0.23523   0.29759   0.66708
 Alpha virt. eigenvalues --    0.68202   0.68202   0.69194   0.72052   0.72953
 Alpha virt. eigenvalues --    0.72953   0.78221   0.78221   0.87848   0.88536

 Mulliken charges and spin densities:
               1          2
     1  O    0.037515   0.000000
     2  O   -0.037515   0.000000
     3  O   -0.037515   0.000000
     4  O    0.037515   0.000000
 Sum of Mulliken charges =  -0.00000   0.00000

 Dipole moment (field-independent basis, Debye):
    X=             -0.0000    Y=             -0.0000    Z=              0.0000  Tot=              0.0000
 Quadrupole moment (field-independent basis, Debye-Ang):
   XX=            -20.8179   YY=            -20.8179   ZZ=            -21.8220
   XY=              0.0000   XZ=              0.0000   YZ=              0.0000

 00.654875\CCSD=-299.9756168\CCSD(T)=-300.2176068\RMSD=2.234e-09\PG=D*H
 Normal termination of Gaussian 16 at Sat Jan 14 20:29:52 2023.
