 Gaussian 16, Revision A.03,
 Gaussian 16:  ES64L-G16RevA.03 25-Dec-2016

 ---------------------------------------------------------------
 #p ROCCSD(T)/cc-pVTZ Guess=Read SCF=(VeryTight,CDIIS,VShift=10)
 ---------------------------------------------------------------

 --------
 O2_O2_35
 --------
 Symbolic Z-matrix:
 Charge =  0 Multiplicity = 1

                         Standard orientation:
 ---------------------------------------------------------------------
 Center     Atomic      Atomic             Coordinates (Angstroms)
 Number     Number       Type             X           Y           Z
 ---------------------------------------------------------------------
      1          8           0        0.000000    0.000000    1.288126
      2          8           0        0.000000    0.000000    2.640506
      3          8           0        0.000000    0.000000   -2.640506
      4          8           0        0.000000    0.000000   -1.288126
 ---------------------------------------------------------------------

 SCF Done:  E(ROHF) =  -298.753076977     A.U. after    8 cycles
 E2 =    -0.1991932569D+01 EUMP2 =    -0.30074500954543D+03
 CCSD(T)
 CCSD(T)= -0.30021421085D+03

 The electronic state is 1-SGG.
 Alpha  occ. eigenvalues --  -20.81788 -20.81784 -20.77497 -20.77497  -1.56692
 Alpha  occ. eigenvalues --   -1.56370  -1.17593  -1.15852  -0.73066  -0.69884
 Alpha  occ. eigenvalues --   -0.67965  -0.67965  -0.66516  -0.66516  -0.35950
 Alpha  occ. eigenvalues --   -0.35950
 Alpha virt. eigenvalues --   -0.20345  -0.20345   0.23557   0.29909   0.67995
 Alpha virt. eigenvalues --    0.67995   0.68195   0.69037   0.71942   0.73002
 Alpha virt. eigenvalues --    0.73002   0.78127   0.78127   0.87764   0.88505

 Mulliken charges and spin densities:
               1          2
     1  O    0.039746   0.000000
     2  O   -0.039746   0.000000
     3  O   -0.039746   0.000000
     4  O    0.039746   0.000000
 Sum of Mulliken charges =   0.00000   0.00000

 Dipole moment (field-independent basis, Debye):
    X=             -0.0000    Y=              0.0000    Z=             -0.0000  Tot=              0.0000
 Quadrupole moment (field-independent basis, Debye-Ang):
   XX=            -20.8239   YY=            -20.8239   ZZ=            -21.8505
   XY=              0.0000   XZ=              0.0000   YZ=              0.0000

 .5476219\CCSD=-299.9768347\CCSD(T)=-300.2142108\RMSD=2.549e-09\PG=D*H
 Normal termination of Gaussian 16 at Sat Jan 14 20:26:54 2023.
