 Gaussian 16, Revision A.03,
 Gaussian 16:  ES64L-G16RevA.03 25-Dec-2016

 ---------------------------------------------------------------
 #p ROCCSD(T)/cc-pVTZ Guess=Read SCF=(VeryTight,CDIIS,VShift=10)
 ---------------------------------------------------------------

 --------
 O2_O2_69
 --------
 Symbolic Z-matrix:
 Charge =  0 Multiplicity = 1

                         Standard orientation:
 ---------------------------------------------------------------------
 Center     Atomic      Atomic             Coordinates (Angstroms)
 Number     Number       Type             X           Y           Z
 ---------------------------------------------------------------------
      1          8           0        0.000000    0.000000    1.769518
      2          8           0        0.000000    0.000000    3.121898
      3          8           0        0.000000    0.000000   -3.121898
      4          8           0        0.000000    0.000000   -1.769518
 ---------------------------------------------------------------------

 SCF Done:  E(ROHF) =  -298.704993276     A.U. after    7 cycles
 E2 =    -0.2456425058D+01 EUMP2 =    -0.30116141833365D+03
 CCSD(T)
 CCSD(T)= -0.30025810430D+03

 The electronic state is 1-SGG.
 Alpha  occ. eigenvalues --  -20.80059 -20.80058 -20.77975 -20.77975  -1.56066
 Alpha  occ. eigenvalues --   -1.56026  -1.16430  -1.16163  -0.71273  -0.70841
 Alpha  occ. eigenvalues --   -0.67116  -0.67116  -0.66577  -0.66577  -0.33623
 Alpha  occ. eigenvalues --   -0.33623
 Alpha virt. eigenvalues --   -0.22143  -0.22143   0.23869   0.27973   0.58520
 Alpha virt. eigenvalues --    0.70971   0.70971   0.70995   0.72062   0.72062
 Alpha virt. eigenvalues --    0.73132   0.80658   0.80658   0.83288   0.83288

 Mulliken charges and spin densities:
               1          2
     1  O    0.020902  -0.000000
     2  O   -0.020902  -0.000000
     3  O   -0.020902  -0.000000
     4  O    0.020902  -0.000000
 Sum of Mulliken charges =  -0.00000  -0.00000

 Dipole moment (field-independent basis, Debye):
    X=             -0.0000    Y=              0.0000    Z=             -0.0000  Tot=              0.0000
 Quadrupole moment (field-independent basis, Debye-Ang):
   XX=            -20.7563   YY=            -20.7563   ZZ=            -21.6701
   XY=              0.0000   XZ=              0.0000   YZ=              0.0000

 4.2738202\CCSD=-299.9649008\CCSD(T)=-300.2581043\RMSD=8.289e-09\PG=D*H
 Normal termination of Gaussian 16 at Sat Jan 14 21:17:59 2023.
