 Gaussian 16, Revision A.03,
 Gaussian 16:  ES64L-G16RevA.03 25-Dec-2016

 ---------------------------------------------------------------
 #p ROCCSD(T)/cc-pVTZ Guess=Read SCF=(VeryTight,CDIIS,VShift=10)
 ---------------------------------------------------------------

 --------
 O2_O2_38
 --------
 Symbolic Z-matrix:
 Charge =  0 Multiplicity = 1

                         Standard orientation:
 ---------------------------------------------------------------------
 Center     Atomic      Atomic             Coordinates (Angstroms)
 Number     Number       Type             X           Y           Z
 ---------------------------------------------------------------------
      1          8           0        0.000000    0.000000    1.330602
      2          8           0        0.000000    0.000000    2.682982
      3          8           0        0.000000    0.000000   -2.682982
      4          8           0        0.000000    0.000000   -1.330602
 ---------------------------------------------------------------------

 SCF Done:  E(ROHF) =  -298.746894412     A.U. after    8 cycles
 E2 =    -0.2035232563D+01 EUMP2 =    -0.30078212697468D+03
 CCSD(T)
 CCSD(T)= -0.30021926787D+03

 The electronic state is 1-SGG.
 Alpha  occ. eigenvalues --  -20.81548 -20.81544 -20.77575 -20.77575  -1.56593
 Alpha  occ. eigenvalues --   -1.56333  -1.17381  -1.15938  -0.72762  -0.70085
 Alpha  occ. eigenvalues --   -0.67837  -0.67837  -0.66537  -0.66537  -0.35656
 Alpha  occ. eigenvalues --   -0.35656
 Alpha virt. eigenvalues --   -0.20576  -0.20576   0.23506   0.29687   0.66009
 Alpha virt. eigenvalues --    0.68309   0.68309   0.69273   0.72104   0.72927
 Alpha virt. eigenvalues --    0.72927   0.78273   0.78273   0.87888   0.88344

 Mulliken charges and spin densities:
               1          2
     1  O    0.036490   0.000000
     2  O   -0.036490   0.000000
     3  O   -0.036490   0.000000
     4  O    0.036490   0.000000
 Sum of Mulliken charges =  -0.00000   0.00000

 Dipole moment (field-independent basis, Debye):
    X=             -0.0000    Y=              0.0000    Z=             -0.0000  Tot=              0.0000
 Quadrupole moment (field-independent basis, Debye-Ang):
   XX=            -20.8150   YY=            -20.8150   ZZ=            -21.8097
   XY=              0.0000   XZ=              0.0000   YZ=              0.0000

 .7130696\CCSD=-299.9750394\CCSD(T)=-300.2192679\RMSD=2.176e-09\PG=D*H
 Normal termination of Gaussian 16 at Sat Jan 14 20:31:22 2023.
