 Gaussian 16, Revision A.03,
 Gaussian 16:  ES64L-G16RevA.03 25-Dec-2016

 ----------------------------------------------------------------------
 #p ROCCSD(T,MaxCyc=350)/cc-pVTZ Guess=Read SCF=(VeryTight,MaxCycle=250
 0,CDIIS,VShift=10)
 ----------------------------------------------------------------------

 ---------
 O2_O2_266
 ---------
 Symbolic Z-matrix:
 Charge =  0 Multiplicity = 1

                         Standard orientation:
 ---------------------------------------------------------------------
 Center     Atomic      Atomic             Coordinates (Angstroms)
 Number     Number       Type             X           Y           Z
 ---------------------------------------------------------------------
      1          8           0        0.000000    0.000000    4.558759
      2          8           0        0.000000    0.000000    5.911139
      3          8           0        0.000000    0.000000   -5.911139
      4          8           0        0.000000    0.000000   -4.558759
 ---------------------------------------------------------------------

 SCF Done:  E(ROHF) =  -298.639894293     A.U. after    6 cycles
 E2 =    -0.4816745118D+01 EUMP2 =    -0.30345663941067D+03
 CCSD(T)
 CCSD(T)= -0.30032970316D+03

 The electronic state is 1-SGG.
 Alpha  occ. eigenvalues --  -20.79013 -20.79013 -20.78610 -20.78610  -1.55875
 Alpha  occ. eigenvalues --   -1.55875  -1.16154  -1.16142  -0.70895  -0.70895
 Alpha  occ. eigenvalues --   -0.66715  -0.66715  -0.66670  -0.66670  -0.30316
 Alpha  occ. eigenvalues --   -0.30316
 Alpha virt. eigenvalues --   -0.25215  -0.25215   0.26273   0.26273   0.67739
 Alpha virt. eigenvalues --    0.67741   0.71688   0.71688   0.71688   0.71688
 Alpha virt. eigenvalues --    0.75344   0.75344   0.81965   0.81965   0.81965

 Mulliken charges and spin densities:
               1          2
     1  O    0.004471   0.000000
     2  O   -0.004471  -0.000000
     3  O   -0.004471   0.000000
     4  O    0.004471   0.000000
 Sum of Mulliken charges =   0.00000   0.00000

 Dipole moment (field-independent basis, Debye):
    X=             -0.0000    Y=             -0.0000    Z=             -0.0000  Tot=              0.0000
 Quadrupole moment (field-independent basis, Debye-Ang):
   XX=            -20.7394   YY=            -20.7394   ZZ=            -21.1338
   XY=              0.0000   XZ=              0.0000   YZ=              0.0000

 P2-0=-303.4566394\MP4SDQ=-481.4123461\CCSD=-299.9570551\CCSD(T)=-300.3
 Normal termination of Gaussian 16 at Sun Jan 15 09:59:36 2023.
