 Gaussian 16, Revision A.03,
 Gaussian 16:  ES64L-G16RevA.03 25-Dec-2016

 ----------------------------------------------------------------------
 #p ROCCSD(T,MaxCyc=350)/cc-pVTZ Guess=Read SCF=(VeryTight,MaxCycle=250
 0,CDIIS,VShift=10)
 ----------------------------------------------------------------------

 ---------
 O2_O2_197
 ---------
 Symbolic Z-matrix:
 Charge =  0 Multiplicity = 1

                         Standard orientation:
 ---------------------------------------------------------------------
 Center     Atomic      Atomic             Coordinates (Angstroms)
 Number     Number       Type             X           Y           Z
 ---------------------------------------------------------------------
      1          8           0        0.000000    0.000000    3.581816
      2          8           0        0.000000    0.000000    4.934196
      3          8           0        0.000000    0.000000   -4.934196
      4          8           0        0.000000    0.000000   -3.581816
 ---------------------------------------------------------------------

 SCF Done:  E(ROHF) =  -298.651910560     A.U. after    6 cycles
 E2 =    -0.4000350083D+01 EUMP2 =    -0.30265226064322D+03
 CCSD(T)
 CCSD(T)= -0.30031554102D+03

 The electronic state is 1-SGG.
 Alpha  occ. eigenvalues --  -20.79121 -20.79121 -20.78512 -20.78512  -1.55881
 Alpha  occ. eigenvalues --   -1.55880  -1.16164  -1.16141  -0.70901  -0.70899
 Alpha  occ. eigenvalues --   -0.66741  -0.66741  -0.66655  -0.66655  -0.30921
 Alpha  occ. eigenvalues --   -0.30921
 Alpha virt. eigenvalues --   -0.24618  -0.24618   0.26268   0.26268   0.67731
 Alpha virt. eigenvalues --    0.67736   0.71683   0.71683   0.71683   0.71683
 Alpha virt. eigenvalues --    0.75340   0.75341   0.81961   0.81961   0.81961

 Mulliken charges and spin densities:
               1          2
     1  O    0.006790   0.000000
     2  O   -0.006790   0.000000
     3  O   -0.006790   0.000000
     4  O    0.006790   0.000000
 Sum of Mulliken charges =  -0.00000   0.00000

 Dipole moment (field-independent basis, Debye):
    X=             -0.0000    Y=              0.0000    Z=             -0.0000  Tot=              0.0000
 Quadrupole moment (field-independent basis, Debye-Ang):
   XX=            -20.7394   YY=            -20.7394   ZZ=            -21.2561
   XY=              0.0000   XZ=              0.0000   YZ=              0.0000

 -0=-302.6522606\MP4SDQ=-377.9048573\CCSD=-299.958083\CCSD(T)=-300.3155
 Normal termination of Gaussian 16 at Sun Jan 15 07:30:15 2023.
