 Gaussian 16, Revision A.03,
 Gaussian 16:  ES64L-G16RevA.03 25-Dec-2016

 ---------------------------------------------------------------
 #p ROCCSD(T)/cc-pVTZ Guess=Read SCF=(VeryTight,CDIIS,VShift=10)
 ---------------------------------------------------------------

 --------
 O2_O2_47
 --------
 Symbolic Z-matrix:
 Charge =  0 Multiplicity = 1

                         Standard orientation:
 ---------------------------------------------------------------------
 Center     Atomic      Atomic             Coordinates (Angstroms)
 Number     Number       Type             X           Y           Z
 ---------------------------------------------------------------------
      1          8           0        0.000000    0.000000    1.458029
      2          8           0        0.000000    0.000000    2.810409
      3          8           0        0.000000    0.000000   -2.810409
      4          8           0        0.000000    0.000000   -1.458029
 ---------------------------------------------------------------------

 SCF Done:  E(ROHF) =  -298.731043956     A.U. after    8 cycles
 E2 =    -0.2162450547D+01 EUMP2 =    -0.30089349450360D+03
 CCSD(T)
 CCSD(T)= -0.30023303468D+03

 The electronic state is 1-SGG.
 Alpha  occ. eigenvalues --  -20.80946 -20.80944 -20.77746 -20.77746  -1.56365
 Alpha  occ. eigenvalues --   -1.56223  -1.16927  -1.16090  -0.72074  -0.70488
 Alpha  occ. eigenvalues --   -0.67533  -0.67533  -0.66568  -0.66568  -0.34902
 Alpha  occ. eigenvalues --   -0.34902
 Alpha virt. eigenvalues --   -0.21155  -0.21155   0.23378   0.29111   0.61086
 Alpha virt. eigenvalues --    0.69305   0.69305   0.69973   0.72478   0.72677
 Alpha virt. eigenvalues --    0.72677   0.78879   0.78879   0.86379   0.86379

 Mulliken charges and spin densities:
               1          2
     1  O    0.029364   0.000000
     2  O   -0.029364   0.000000
     3  O   -0.029364   0.000000
     4  O    0.029364   0.000000
 Sum of Mulliken charges =   0.00000   0.00000

 Dipole moment (field-independent basis, Debye):
    X=             -0.0000    Y=              0.0000    Z=             -0.0000  Tot=              0.0000
 Quadrupole moment (field-independent basis, Debye-Ang):
   XX=            -20.7914   YY=            -20.7914   ZZ=            -21.7390
   XY=              0.0000   XZ=              0.0000   YZ=              0.0000

 .3828507\CCSD=-299.9707269\CCSD(T)=-300.2330347\RMSD=2.056e-09\PG=D*H
 Normal termination of Gaussian 16 at Sat Jan 14 20:44:41 2023.
