 Gaussian 16, Revision A.03,
 Gaussian 16:  ES64L-G16RevA.03 25-Dec-2016

 ---------------------------------------------------------------
 #p ROCCSD(T)/cc-pVTZ Guess=Read SCF=(VeryTight,CDIIS,VShift=10)
 ---------------------------------------------------------------

 --------
 O2_O2_42
 --------
 Symbolic Z-matrix:
 Charge =  0 Multiplicity = 1

                         Standard orientation:
 ---------------------------------------------------------------------
 Center     Atomic      Atomic             Coordinates (Angstroms)
 Number     Number       Type             X           Y           Z
 ---------------------------------------------------------------------
      1          8           0        0.000000    0.000000    1.387236
      2          8           0        0.000000    0.000000    2.739616
      3          8           0        0.000000    0.000000   -2.739616
      4          8           0        0.000000    0.000000   -1.387236
 ---------------------------------------------------------------------

 SCF Done:  E(ROHF) =  -298.739371893     A.U. after    8 cycles
 E2 =    -0.2092288668D+01 EUMP2 =    -0.30083166056114D+03
 CCSD(T)
 CCSD(T)= -0.30022565382D+03

 The electronic state is 1-SGG.
 Alpha  occ. eigenvalues --  -20.81259 -20.81256 -20.77661 -20.77661  -1.56481
 Alpha  occ. eigenvalues --   -1.56284  -1.17150  -1.16022  -0.72419  -0.70295
 Alpha  occ. eigenvalues --   -0.67688  -0.67688  -0.66555  -0.66555  -0.35299
 Alpha  occ. eigenvalues --   -0.35299
 Alpha virt. eigenvalues --   -0.20852  -0.20852   0.23441   0.29418   0.63516
 Alpha virt. eigenvalues --    0.68753   0.68753   0.69589   0.72288   0.72821
 Alpha virt. eigenvalues --    0.72821   0.78514   0.78514   0.87434   0.87434

 Mulliken charges and spin densities:
               1          2
     1  O    0.032902   0.000000
     2  O   -0.032902   0.000000
     3  O   -0.032902   0.000000
     4  O    0.032902   0.000000
 Sum of Mulliken charges =   0.00000   0.00000

 Dipole moment (field-independent basis, Debye):
    X=             -0.0000    Y=              0.0000    Z=             -0.0000  Tot=              0.0000
 Quadrupole moment (field-independent basis, Debye-Ang):
   XX=            -20.8038   YY=            -20.8038   ZZ=            -21.7708
   XY=              0.0000   XZ=              0.0000   YZ=              0.0000

 00.9775156\CCSD=-299.9729337\CCSD(T)=-300.2256538\RMSD=2.288e-09\PG=D*
 Normal termination of Gaussian 16 at Sat Jan 14 20:37:27 2023.
