 Gaussian 16, Revision A.03,
 Gaussian 16:  ES64L-G16RevA.03 25-Dec-2016

 ---------------------------------------------------------------
 #p ROCCSD(T)/cc-pVTZ Guess=Read SCF=(VeryTight,CDIIS,VShift=10)
 ---------------------------------------------------------------

 --------
 O2_O2_36
 --------
 Symbolic Z-matrix:
 Charge =  0 Multiplicity = 1

                         Standard orientation:
 ---------------------------------------------------------------------
 Center     Atomic      Atomic             Coordinates (Angstroms)
 Number     Number       Type             X           Y           Z
 ---------------------------------------------------------------------
      1          8           0        0.000000    0.000000    1.302285
      2          8           0        0.000000    0.000000    2.654665
      3          8           0        0.000000    0.000000   -2.654665
      4          8           0        0.000000    0.000000   -1.302285
 ---------------------------------------------------------------------

 SCF Done:  E(ROHF) =  -298.750963363     A.U. after    8 cycles
 E2 =    -0.2006411826D+01 EUMP2 =    -0.30075737518934D+03
 CCSD(T)
 CCSD(T)= -0.30021592168D+03

 The electronic state is 1-SGG.
 Alpha  occ. eigenvalues --  -20.81706 -20.81702 -20.77525 -20.77524  -1.56657
 Alpha  occ. eigenvalues --   -1.56358  -1.17518  -1.15883  -0.72960  -0.69955
 Alpha  occ. eigenvalues --   -0.67921  -0.67921  -0.66524  -0.66524  -0.35849
 Alpha  occ. eigenvalues --   -0.35849
 Alpha virt. eigenvalues --   -0.20425  -0.20425   0.23540   0.29833   0.67437
 Alpha virt. eigenvalues --    0.68097   0.68097   0.69115   0.71998   0.72977
 Alpha virt. eigenvalues --    0.72977   0.78172   0.78172   0.87807   0.88521

 Mulliken charges and spin densities:
               1          2
     1  O    0.038599  -0.000000
     2  O   -0.038599  -0.000000
     3  O   -0.038599  -0.000000
     4  O    0.038599  -0.000000
 Sum of Mulliken charges =  -0.00000  -0.00000

 Dipole moment (field-independent basis, Debye):
    X=             -0.0000    Y=              0.0000    Z=              0.0000  Tot=              0.0000
 Quadrupole moment (field-independent basis, Debye-Ang):
   XX=            -20.8209   YY=            -20.8209   ZZ=            -21.8356
   XY=              0.0000   XZ=              0.0000   YZ=              0.0000

 00.5997439\CCSD=-299.9762156\CCSD(T)=-300.2159217\RMSD=2.443e-09\PG=D*
 Normal termination of Gaussian 16 at Sat Jan 14 20:28:24 2023.
