 Gaussian 16, Revision A.03,
 Gaussian 16:  ES64L-G16RevA.03 25-Dec-2016

 ----------------------------------------------------------------------
 #p ROCCSD(T,MaxCyc=250)/cc-pVTZ Guess=Read SCF=(VeryTight,MaxCycle=250
 0,CDIIS,VShift=10)
 ----------------------------------------------------------------------

 ---------
 O2_O2_133
 ---------
 Symbolic Z-matrix:
 Charge =  0 Multiplicity = 1

                         Standard orientation:
 ---------------------------------------------------------------------
 Center     Atomic      Atomic             Coordinates (Angstroms)
 Number     Number       Type             X           Y           Z
 ---------------------------------------------------------------------
      1          8           0        0.000000    0.000000    2.675667
      2          8           0        0.000000    0.000000    4.028047
      3          8           0        0.000000    0.000000   -4.028047
      4          8           0        0.000000    0.000000   -2.675667
 ---------------------------------------------------------------------

 SCF Done:  E(ROHF) =  -298.669720975     A.U. after    6 cycles
 E2 =    -0.3239601951D+01 EUMP2 =    -0.30190932292610D+03
 CCSD(T)
 CCSD(T)= -0.30029537169D+03

 The electronic state is 1-SGG.
 Alpha  occ. eigenvalues --  -20.79327 -20.79327 -20.78335 -20.78334  -1.55898
 Alpha  occ. eigenvalues --   -1.55894  -1.16191  -1.16141  -0.70920  -0.70911
 Alpha  occ. eigenvalues --   -0.66804  -0.66804  -0.66623  -0.66623  -0.31824
 Alpha  occ. eigenvalues --   -0.31824
 Alpha virt. eigenvalues --   -0.23739  -0.23739   0.26204   0.26304   0.67521
 Alpha virt. eigenvalues --    0.67903   0.71666   0.71666   0.71672   0.71672
 Alpha virt. eigenvalues --    0.75252   0.75413   0.81943   0.81943   0.81957

 Mulliken charges and spin densities:
               1          2
     1  O    0.011040   0.000000
     2  O   -0.011040   0.000000
     3  O   -0.011040   0.000000
     4  O    0.011040   0.000000
 Sum of Mulliken charges =  -0.00000   0.00000

 Dipole moment (field-independent basis, Debye):
    X=             -0.0000    Y=              0.0000    Z=             -0.0000  Tot=              0.0000
 Quadrupole moment (field-independent basis, Debye-Ang):
   XX=            -20.7395   YY=            -20.7395   ZZ=            -21.4341
   XY=              0.0000   XZ=              0.0000   YZ=              0.0000

 0=-301.9093229\MP4SDQ=-326.2325499\CCSD=-299.9598422\CCSD(T)=-300.2953
 Normal termination of Gaussian 16 at Sun Jan 15 03:56:36 2023.
