 Gaussian 16, Revision A.03,
 Gaussian 16:  ES64L-G16RevA.03 25-Dec-2016

 ----------------------------------------------------------------------
 #p ROCCSD(T,MaxCyc=350)/cc-pVTZ Guess=Read SCF=(VeryTight,MaxCycle=250
 0,CDIIS,VShift=10)
 ----------------------------------------------------------------------

 ---------
 O2_O2_165
 ---------
 Symbolic Z-matrix:
 Charge =  0 Multiplicity = 1

                         Standard orientation:
 ---------------------------------------------------------------------
 Center     Atomic      Atomic             Coordinates (Angstroms)
 Number     Number       Type             X           Y           Z
 ---------------------------------------------------------------------
      1          8           0        0.000000    0.000000    3.128742
      2          8           0        0.000000    0.000000    4.481122
      3          8           0        0.000000    0.000000   -4.481122
      4          8           0        0.000000    0.000000   -3.128742
 ---------------------------------------------------------------------

 SCF Done:  E(ROHF) =  -298.659685307     A.U. after    6 cycles
 E2 =    -0.3620617273D+01 EUMP2 =    -0.30228030257949D+03
 CCSD(T)
 CCSD(T)= -0.30030660051D+03

 The electronic state is 1-SGG.
 Alpha  occ. eigenvalues --  -20.79204 -20.79204 -20.78439 -20.78439  -1.55887
 Alpha  occ. eigenvalues --   -1.55885  -1.16174  -1.16141  -0.70906  -0.70904
 Alpha  occ. eigenvalues --   -0.66764  -0.66764  -0.66642  -0.66642  -0.31314
 Alpha  occ. eigenvalues --   -0.31314
 Alpha virt. eigenvalues --   -0.24233  -0.24233   0.26261   0.26266   0.67717
 Alpha virt. eigenvalues --    0.67738   0.71678   0.71678   0.71678   0.71678
 Alpha virt. eigenvalues --    0.75334   0.75341   0.81957   0.81957   0.81958

 Mulliken charges and spin densities:
               1          2
     1  O    0.008531   0.000000
     2  O   -0.008531   0.000000
     3  O   -0.008531   0.000000
     4  O    0.008531   0.000000
 Sum of Mulliken charges =   0.00000   0.00000

 Dipole moment (field-independent basis, Debye):
    X=             -0.0000    Y=             -0.0000    Z=             -0.0000  Tot=              0.0000
 Quadrupole moment (field-independent basis, Debye-Ang):
   XX=            -20.7394   YY=            -20.7394   ZZ=            -21.3346
   XY=              0.0000   XZ=              0.0000   YZ=              0.0000

 2-0=-302.2803026\MP4SDQ=-347.557269\CCSD=-299.9588067\CCSD(T)=-300.306
 Normal termination of Gaussian 16 at Sun Jan 15 05:58:09 2023.
