 Gaussian 16, Revision A.03,
 Gaussian 16:  ES64L-G16RevA.03 25-Dec-2016

 ---------------------------------------------------------------
 #p ROCCSD(T)/cc-pVTZ Guess=Read SCF=(VeryTight,CDIIS,VShift=10)
 ---------------------------------------------------------------

 --------
 O2_O2_49
 --------
 Symbolic Z-matrix:
 Charge =  0 Multiplicity = 1

                         Standard orientation:
 ---------------------------------------------------------------------
 Center     Atomic      Atomic             Coordinates (Angstroms)
 Number     Number       Type             X           Y           Z
 ---------------------------------------------------------------------
      1          8           0        0.000000    0.000000    1.486346
      2          8           0        0.000000    0.000000    2.838726
      3          8           0        0.000000    0.000000   -2.838726
      4          8           0        0.000000    0.000000   -1.486346
 ---------------------------------------------------------------------

 SCF Done:  E(ROHF) =  -298.728017551     A.U. after    8 cycles
 E2 =    -0.2190148085D+01 EUMP2 =    -0.30091816563673D+03
 CCSD(T)
 CCSD(T)= -0.30023579545D+03

 The electronic state is 1-SGG.
 Alpha  occ. eigenvalues --  -20.80835 -20.80832 -20.77775 -20.77775  -1.56325
 Alpha  occ. eigenvalues --   -1.56200  -1.16854  -1.16108  -0.71959  -0.70548
 Alpha  occ. eigenvalues --   -0.67479  -0.67479  -0.66571  -0.66571  -0.34757
 Alpha  occ. eigenvalues --   -0.34757
 Alpha virt. eigenvalues --   -0.21266  -0.21266   0.23365   0.28996   0.60323
 Alpha virt. eigenvalues --    0.69515   0.69515   0.70117   0.72544   0.72618
 Alpha virt. eigenvalues --    0.72618   0.79040   0.79040   0.85989   0.85989

 Mulliken charges and spin densities:
               1          2
     1  O    0.028188   0.000000
     2  O   -0.028188   0.000000
     3  O   -0.028188   0.000000
     4  O    0.028188   0.000000
 Sum of Mulliken charges =  -0.00000   0.00000

 Dipole moment (field-independent basis, Debye):
    X=             -0.0000    Y=              0.0000    Z=              0.0000  Tot=              0.0000
 Quadrupole moment (field-independent basis, Debye-Ang):
   XX=            -20.7869   YY=            -20.7869   ZZ=            -21.7298
   XY=              0.0000   XZ=              0.0000   YZ=              0.0000

 01.5693526\CCSD=-299.9699605\CCSD(T)=-300.2357955\RMSD=1.935e-09\PG=D*
 Normal termination of Gaussian 16 at Sat Jan 14 20:47:35 2023.
