 Gaussian 16, Revision A.03,
 Gaussian 16:  ES64L-G16RevA.03 25-Dec-2016

 ----------------------------------------------------------------------
 #p ROCCSD(T,MaxCyc=250)/cc-pVTZ Guess=Read SCF=(VeryTight,MaxCycle=250
 0,CDIIS,VShift=10)
 ----------------------------------------------------------------------

 ---------
 O2_O2_150
 ---------
 Symbolic Z-matrix:
 Charge =  0 Multiplicity = 1

                         Standard orientation:
 ---------------------------------------------------------------------
 Center     Atomic      Atomic             Coordinates (Angstroms)
 Number     Number       Type             X           Y           Z
 ---------------------------------------------------------------------
      1          8           0        0.000000    0.000000    2.916363
      2          8           0        0.000000    0.000000    4.268743
      3          8           0        0.000000    0.000000   -4.268743
      4          8           0        0.000000    0.000000   -2.916363
 ---------------------------------------------------------------------

 SCF Done:  E(ROHF) =  -298.664048597     A.U. after    6 cycles
 E2 =    -0.3442236040D+01 EUMP2 =    -0.30210628463723D+03
 CCSD(T)
 CCSD(T)= -0.30030168568D+03

 The electronic state is 1-SGG.
 Alpha  occ. eigenvalues --  -20.79255 -20.79255 -20.78395 -20.78395  -1.55891
 Alpha  occ. eigenvalues --   -1.55888  -1.16180  -1.16141  -0.70911  -0.70907
 Alpha  occ. eigenvalues --   -0.66780  -0.66780  -0.66634  -0.66634  -0.31536
 Alpha  occ. eigenvalues --   -0.31536
 Alpha virt. eigenvalues --   -0.24018  -0.24018   0.26250   0.26270   0.67682
 Alpha virt. eigenvalues --    0.67763   0.71674   0.71674   0.71675   0.71675
 Alpha virt. eigenvalues --    0.75319   0.75350   0.81953   0.81953   0.81956

 Mulliken charges and spin densities:
               1          2
     1  O    0.009587   0.000000
     2  O   -0.009587   0.000000
     3  O   -0.009587   0.000000
     4  O    0.009587   0.000000
 Sum of Mulliken charges =  -0.00000   0.00000

 Dipole moment (field-independent basis, Debye):
    X=             -0.0000    Y=             -0.0000    Z=              0.0000  Tot=              0.0000
 Quadrupole moment (field-independent basis, Debye-Ang):
   XX=            -20.7394   YY=            -20.7394   ZZ=            -21.3782
   XY=              0.0000   XZ=              0.0000   YZ=              0.0000

 2-0=-302.1062846\MP4SDQ=-336.5339998\CCSD=-299.959247\CCSD(T)=-300.301
 Normal termination of Gaussian 16 at Sun Jan 15 04:24:19 2023.
