 Gaussian 16, Revision A.03,
 Gaussian 16:  ES64L-G16RevA.03 25-Dec-2016

 ----------------------------------------------------------------------
 #p ROCCSD(T,MaxCyc=250)/cc-pVTZ Guess=Read SCF=(VeryTight,MaxCycle=250
 0,CDIIS,VShift=10)
 ----------------------------------------------------------------------

 ---------
 O2_O2_109
 ---------
 Symbolic Z-matrix:
 Charge =  0 Multiplicity = 1

                         Standard orientation:
 ---------------------------------------------------------------------
 Center     Atomic      Atomic             Coordinates (Angstroms)
 Number     Number       Type             X           Y           Z
 ---------------------------------------------------------------------
      1          8           0        0.000000    0.000000    2.335861
      2          8           0        0.000000    0.000000    3.688241
      3          8           0        0.000000    0.000000   -3.688241
      4          8           0        0.000000    0.000000   -2.335861
 ---------------------------------------------------------------------

 SCF Done:  E(ROHF) =  -298.679517825     A.U. after    7 cycles
 E2 =    -0.2951765601D+01 EUMP2 =    -0.30163128342563D+03
 CCSD(T)
 CCSD(T)= -0.30028469571D+03

 The electronic state is 1-SGG.
 Alpha  occ. eigenvalues --  -20.79471 -20.79471 -20.78226 -20.78226  -1.55918
 Alpha  occ. eigenvalues --   -1.55909  -1.16220  -1.16143  -0.70951  -0.70913
 Alpha  occ. eigenvalues --   -0.66858  -0.66858  -0.66602  -0.66602  -0.32324
 Alpha  occ. eigenvalues --   -0.32324
 Alpha virt. eigenvalues --   -0.23264  -0.23264   0.25911   0.26545   0.66349
 Alpha virt. eigenvalues --    0.68852   0.71629   0.71629   0.71681   0.71681
 Alpha virt. eigenvalues --    0.74797   0.76053   0.81871   0.81871   0.82008

 Mulliken charges and spin densities:
               1          2
     1  O    0.013725   0.000000
     2  O   -0.013725   0.000000
     3  O   -0.013725   0.000000
     4  O    0.013725   0.000000
 Sum of Mulliken charges =  -0.00000   0.00000

 Dipole moment (field-independent basis, Debye):
    X=             -0.0000    Y=             -0.0000    Z=             -0.0000  Tot=              0.0000
 Quadrupole moment (field-independent basis, Debye-Ang):
   XX=            -20.7403   YY=            -20.7403   ZZ=            -21.5249
   XY=              0.0000   XZ=              0.0000   YZ=              0.0000

 2-0=-301.6312834\MP4SDQ=-315.2017326\CCSD=-299.9609705\CCSD(T)=-300.28
 Normal termination of Gaussian 16 at Sun Jan 15 03:20:02 2023.
