 Gaussian 16, Revision A.03,
 Gaussian 16:  ES64L-G16RevA.03 25-Dec-2016

 ----------------------------------------------------------------------
 #p ROCCSD(T,MaxCyc=350)/cc-pVTZ Guess=Read SCF=(VeryTight,MaxCycle=250
 0,CDIIS,VShift=10)
 ----------------------------------------------------------------------

 ---------
 O2_O2_167
 ---------
 Symbolic Z-matrix:
 Charge =  0 Multiplicity = 1

                         Standard orientation:
 ---------------------------------------------------------------------
 Center     Atomic      Atomic             Coordinates (Angstroms)
 Number     Number       Type             X           Y           Z
 ---------------------------------------------------------------------
      1          8           0        0.000000    0.000000    3.157059
      2          8           0        0.000000    0.000000    4.509439
      3          8           0        0.000000    0.000000   -4.509439
      4          8           0        0.000000    0.000000   -3.157059
 ---------------------------------------------------------------------

 SCF Done:  E(ROHF) =  -298.659142430     A.U. after    6 cycles
 E2 =    -0.3644379832D+01 EUMP2 =    -0.30230352226202D+03
 CCSD(T)
 CCSD(T)= -0.30030721759D+03

 The electronic state is 1-SGG.
 Alpha  occ. eigenvalues --  -20.79198 -20.79198 -20.78444 -20.78444  -1.55887
 Alpha  occ. eigenvalues --   -1.55884  -1.16173  -1.16141  -0.70906  -0.70904
 Alpha  occ. eigenvalues --   -0.66763  -0.66763  -0.66643  -0.66643  -0.31287
 Alpha  occ. eigenvalues --   -0.31287
 Alpha virt. eigenvalues --   -0.24260  -0.24260   0.26262   0.26266   0.67719
 Alpha virt. eigenvalues --    0.67737   0.71678   0.71678   0.71679   0.71679
 Alpha virt. eigenvalues --    0.75335   0.75341   0.81957   0.81957   0.81958

 Mulliken charges and spin densities:
               1          2
     1  O    0.008403   0.000000
     2  O   -0.008403   0.000000
     3  O   -0.008403   0.000000
     4  O    0.008403   0.000000
 Sum of Mulliken charges =  -0.00000   0.00000

 Dipole moment (field-independent basis, Debye):
    X=             -0.0000    Y=              0.0000    Z=             -0.0000  Tot=              0.0000
 Quadrupole moment (field-independent basis, Debye-Ang):
   XX=            -20.7394   YY=            -20.7394   ZZ=            -21.3291
   XY=              0.0000   XZ=              0.0000   YZ=              0.0000

 -0=-302.3035223\MP4SDQ=-349.1733282\CCSD=-299.9587539\CCSD(T)=-300.307
 Normal termination of Gaussian 16 at Sun Jan 15 06:07:08 2023.
