 Gaussian 16, Revision A.03,
 Gaussian 16:  ES64L-G16RevA.03 25-Dec-2016

 ---------------------------------------------------------------
 #p ROCCSD(T)/cc-pVTZ Guess=Read SCF=(VeryTight,CDIIS,VShift=10)
 ---------------------------------------------------------------

 ---------
 O2_O2_102
 ---------
 Symbolic Z-matrix:
 Charge =  0 Multiplicity = 1

                         Standard orientation:
 ---------------------------------------------------------------------
 Center     Atomic      Atomic             Coordinates (Angstroms)
 Number     Number       Type             X           Y           Z
 ---------------------------------------------------------------------
      1          8           0        0.000000    0.000000    2.236751
      2          8           0        0.000000    0.000000    3.589131
      3          8           0        0.000000    0.000000   -3.589131
      4          8           0        0.000000    0.000000   -2.236751
 ---------------------------------------------------------------------

 SCF Done:  E(ROHF) =  -298.682920318     A.U. after    7 cycles
 E2 =    -0.2867047954D+01 EUMP2 =    -0.30154996827251D+03
 CCSD(T)
 CCSD(T)= -0.30028105171D+03

 The electronic state is 1-SGG.
 Alpha  occ. eigenvalues --  -20.79530 -20.79529 -20.78189 -20.78189  -1.55928
 Alpha  occ. eigenvalues --   -1.55917  -1.16235  -1.16145  -0.70971  -0.70912
 Alpha  occ. eigenvalues --   -0.66882  -0.66882  -0.66595  -0.66595  -0.32498
 Alpha  occ. eigenvalues --   -0.32498
 Alpha virt. eigenvalues --   -0.23104  -0.23104   0.25712   0.26698   0.65498
 Alpha virt. eigenvalues --    0.69400   0.71599   0.71599   0.71697   0.71697
 Alpha virt. eigenvalues --    0.74527   0.76663   0.81810   0.81810   0.82060

 Mulliken charges and spin densities:
               1          2
     1  O    0.014690   0.000000
     2  O   -0.014690   0.000000
     3  O   -0.014690   0.000000
     4  O    0.014690   0.000000
 Sum of Mulliken charges =   0.00000   0.00000

 Dipole moment (field-independent basis, Debye):
    X=             -0.0000    Y=              0.0000    Z=             -0.0000  Tot=              0.0000
 Quadrupole moment (field-independent basis, Debye-Ang):
   XX=            -20.7411   YY=            -20.7411   ZZ=            -21.5529
   XY=              0.0000   XZ=              0.0000   YZ=              0.0000

 312.6728251\CCSD=-299.9614019\CCSD(T)=-300.2810517\RMSD=2.407e-09\PG=D
 Normal termination of Gaussian 16 at Sat Jan 14 22:09:15 2023.
