 Gaussian 16, Revision A.03,
 Gaussian 16:  ES64L-G16RevA.03 25-Dec-2016

 ---------------------------------------------------------------
 #p ROCCSD(T)/cc-pVTZ Guess=Read SCF=(VeryTight,CDIIS,VShift=10)
 ---------------------------------------------------------------

 --------
 O2_O2_80
 --------
 Symbolic Z-matrix:
 Charge =  0 Multiplicity = 1

                         Standard orientation:
 ---------------------------------------------------------------------
 Center     Atomic      Atomic             Coordinates (Angstroms)
 Number     Number       Type             X           Y           Z
 ---------------------------------------------------------------------
      1          8           0        0.000000    0.000000    1.925262
      2          8           0        0.000000    0.000000    3.277642
      3          8           0        0.000000    0.000000   -3.277642
      4          8           0        0.000000    0.000000   -1.925262
 ---------------------------------------------------------------------

 SCF Done:  E(ROHF) =  -298.696165598     A.U. after    7 cycles
 E2 =    -0.2596152966D+01 EUMP2 =    -0.30129231856358D+03
 CCSD(T)
 CCSD(T)= -0.30026714109D+03

 The electronic state is 1-SGG.
 Alpha  occ. eigenvalues --  -20.79816 -20.79815 -20.78054 -20.78054  -1.55995
 Alpha  occ. eigenvalues --   -1.55971  -1.16329  -1.16157  -0.71111  -0.70886
 Alpha  occ. eigenvalues --   -0.67006  -0.67006  -0.66579  -0.66579  -0.33175
 Alpha  occ. eigenvalues --   -0.33175
 Alpha virt. eigenvalues --   -0.22509  -0.22509   0.24568   0.27471   0.60734
 Alpha virt. eigenvalues --    0.70907   0.71329   0.71329   0.71863   0.71863
 Alpha virt. eigenvalues --    0.73530   0.81268   0.81268   0.82590   0.82590

 Mulliken charges and spin densities:
               1          2
     1  O    0.018456   0.000000
     2  O   -0.018456   0.000000
     3  O   -0.018456   0.000000
     4  O    0.018456   0.000000
 Sum of Mulliken charges =   0.00000   0.00000

 Dipole moment (field-independent basis, Debye):
    X=             -0.0000    Y=              0.0000    Z=             -0.0000  Tot=              0.0000
 Quadrupole moment (field-independent basis, Debye-Ang):
   XX=            -20.7480   YY=            -20.7480   ZZ=            -21.6355
   XY=              0.0000   XZ=              0.0000   YZ=              0.0000

 06.4792232\CCSD=-299.9633452\CCSD(T)=-300.2671411\RMSD=5.912e-09\PG=D*
 Normal termination of Gaussian 16 at Sat Jan 14 21:33:59 2023.
