 Gaussian 16, Revision A.03,
 Gaussian 16:  ES64L-G16RevA.03 25-Dec-2016

 ---------------------------------------------------------------
 #p ROCCSD(T)/cc-pVTZ Guess=Read SCF=(VeryTight,CDIIS,VShift=10)
 ---------------------------------------------------------------

 --------
 O2_O2_22
 --------
 Symbolic Z-matrix:
 Charge =  0 Multiplicity = 1

                         Standard orientation:
 ---------------------------------------------------------------------
 Center     Atomic      Atomic             Coordinates (Angstroms)
 Number     Number       Type             X           Y           Z
 ---------------------------------------------------------------------
      1          8           0        0.000000    0.000000    1.104065
      2          8           0        0.000000    0.000000    2.456445
      3          8           0        0.000000    0.000000   -2.456445
      4          8           0        0.000000    0.000000   -1.104065
 ---------------------------------------------------------------------

 SCF Done:  E(ROHF) =  -298.785072904     A.U. after    8 cycles
 E2 =    -0.1800734620D+01 EUMP2 =    -0.30058580752413D+03
 CCSD(T)
 CCSD(T)= -0.30019016818D+03

 The electronic state is 1-SGG.
 Alpha  occ. eigenvalues --  -20.83080 -20.83074 -20.76921 -20.76921  -1.57328
 Alpha  occ. eigenvalues --   -1.56471  -1.19147  -1.15093  -0.75012  -0.68766
 Alpha  occ. eigenvalues --   -0.68766  -0.68303  -0.66300  -0.66300  -0.37542
 Alpha  occ. eigenvalues --   -0.37542
 Alpha virt. eigenvalues --   -0.19010  -0.19010   0.23725   0.31190   0.67195
 Alpha virt. eigenvalues --    0.67195   0.68041   0.70894   0.73282   0.73282
 Alpha virt. eigenvalues --    0.77953   0.77953   0.80104   0.87052   0.88473

 Mulliken charges and spin densities:
               1          2
     1  O    0.062322   0.000000
     2  O   -0.062322   0.000000
     3  O   -0.062322   0.000000
     4  O    0.062322   0.000000
 Sum of Mulliken charges =  -0.00000   0.00000

 Dipole moment (field-independent basis, Debye):
    X=             -0.0000    Y=             -0.0000    Z=             -0.0000  Tot=              0.0000
 Quadrupole moment (field-independent basis, Debye-Ang):
   XX=            -20.8596   YY=            -20.8596   ZZ=            -22.2432
   XY=              0.0000   XZ=              0.0000   YZ=              0.0000

 00.1152883\CCSD=-299.9865227\CCSD(T)=-300.1901682\RMSD=7.466e-09\PG=D*
 Normal termination of Gaussian 16 at Sat Jan 14 20:08:22 2023.
