 Gaussian 16, Revision A.03,
 Gaussian 16:  ES64L-G16RevA.03 25-Dec-2016

 ---------------------------------------------------------------
 #p ROCCSD(T)/cc-pVTZ Guess=Read SCF=(VeryTight,CDIIS,VShift=10)
 ---------------------------------------------------------------

 --------
 O2_O2_59
 --------
 Symbolic Z-matrix:
 Charge =  0 Multiplicity = 1

                         Standard orientation:
 ---------------------------------------------------------------------
 Center     Atomic      Atomic             Coordinates (Angstroms)
 Number     Number       Type             X           Y           Z
 ---------------------------------------------------------------------
      1          8           0        0.000000    0.000000    1.627932
      2          8           0        0.000000    0.000000    2.980312
      3          8           0        0.000000    0.000000   -2.980312
      4          8           0        0.000000    0.000000   -1.627932
 ---------------------------------------------------------------------

 SCF Done:  E(ROHF) =  -298.715079842     A.U. after    8 cycles
 E2 =    -0.2325581837D+01 EUMP2 =    -0.30104066167865D+03
 CCSD(T)
 CCSD(T)= -0.30024807255D+03

 The electronic state is 1-SGG.
 Alpha  occ. eigenvalues --  -20.80379 -20.80377 -20.77889 -20.77889  -1.56168
 Alpha  occ. eigenvalues --   -1.56100  -1.16587  -1.16156  -0.71529  -0.70747
 Alpha  occ. eigenvalues --   -0.67263  -0.67263  -0.66576  -0.66576  -0.34126
 Alpha  occ. eigenvalues --   -0.34126
 Alpha virt. eigenvalues --   -0.21748  -0.21748   0.23455   0.28463   0.58195
 Alpha virt. eigenvalues --    0.70396   0.70396   0.70703   0.72320   0.72320
 Alpha virt. eigenvalues --    0.72837   0.79888   0.79888   0.84370   0.84370

 Mulliken charges and spin densities:
               1          2
     1  O    0.023795   0.000000
     2  O   -0.023795   0.000000
     3  O   -0.023795   0.000000
     4  O    0.023795   0.000000
 Sum of Mulliken charges =  -0.00000   0.00000

 Dipole moment (field-independent basis, Debye):
    X=             -0.0000    Y=              0.0000    Z=              0.0000  Tot=              0.0000
 Quadrupole moment (field-independent basis, Debye-Ang):
   XX=            -20.7686   YY=            -20.7686   ZZ=            -21.6975
   XY=              0.0000   XZ=              0.0000   YZ=              0.0000

 02.7237175\CCSD=-299.9669432\CCSD(T)=-300.2480725\RMSD=1.439e-09\PG=D*
 Normal termination of Gaussian 16 at Sat Jan 14 21:02:05 2023.
