 Gaussian 16, Revision A.03,
 Gaussian 16:  ES64L-G16RevA.03 25-Dec-2016

 ----------------------------------------------------------------------
 #p ROCCSD(T,MaxCyc=350)/cc-pVTZ Guess=Read SCF=(VeryTight,MaxCycle=250
 0,CDIIS,VShift=10)
 ----------------------------------------------------------------------

 ---------
 O2_O2_200
 ---------
 Symbolic Z-matrix:
 Charge =  0 Multiplicity = 1

                         Standard orientation:
 ---------------------------------------------------------------------
 Center     Atomic      Atomic             Coordinates (Angstroms)
 Number     Number       Type             X           Y           Z
 ---------------------------------------------------------------------
      1          8           0        0.000000    0.000000    3.624292
      2          8           0        0.000000    0.000000    4.976672
      3          8           0        0.000000    0.000000   -4.976672
      4          8           0        0.000000    0.000000   -3.624292
 ---------------------------------------------------------------------

 SCF Done:  E(ROHF) =  -298.651269735     A.U. after    6 cycles
 E2 =    -0.4035905498D+01 EUMP2 =    -0.30268717523238D+03
 CCSD(T)
 CCSD(T)= -0.30031628306D+03

 The electronic state is 1-SGG.
 Alpha  occ. eigenvalues --  -20.79115 -20.79115 -20.78518 -20.78518  -1.55881
 Alpha  occ. eigenvalues --   -1.55880  -1.16163  -1.16141  -0.70900  -0.70899
 Alpha  occ. eigenvalues --   -0.66739  -0.66739  -0.66656  -0.66656  -0.30889
 Alpha  occ. eigenvalues --   -0.30889
 Alpha virt. eigenvalues --   -0.24650  -0.24650   0.26268   0.26268   0.67732
 Alpha virt. eigenvalues --    0.67737   0.71683   0.71683   0.71683   0.71683
 Alpha virt. eigenvalues --    0.75341   0.75342   0.81961   0.81961   0.81962

 Mulliken charges and spin densities:
               1          2
     1  O    0.006655   0.000000
     2  O   -0.006655   0.000000
     3  O   -0.006655   0.000000
     4  O    0.006655   0.000000
 Sum of Mulliken charges =  -0.00000   0.00000

 Dipole moment (field-independent basis, Debye):
    X=             -0.0000    Y=              0.0000    Z=             -0.0000  Tot=              0.0000
 Quadrupole moment (field-independent basis, Debye-Ang):
   XX=            -20.7394   YY=            -20.7394   ZZ=            -21.2496
   XY=              0.0000   XZ=              0.0000   YZ=              0.0000

 2-0=-302.6871752\MP4SDQ=-381.2686286\CCSD=-299.9580241\CCSD(T)=-300.31
 Normal termination of Gaussian 16 at Sun Jan 15 07:38:59 2023.
