 Gaussian 16, Revision A.03,
 Gaussian 16:  ES64L-G16RevA.03 25-Dec-2016

 ---------------------------------------------------------------
 #p ROCCSD(T)/cc-pVTZ Guess=Read SCF=(VeryTight,CDIIS,VShift=10)
 ---------------------------------------------------------------

 --------
 O2_O2_54
 --------
 Symbolic Z-matrix:
 Charge =  0 Multiplicity = 1

                         Standard orientation:
 ---------------------------------------------------------------------
 Center     Atomic      Atomic             Coordinates (Angstroms)
 Number     Number       Type             X           Y           Z
 ---------------------------------------------------------------------
      1          8           0        0.000000    0.000000    1.557139
      2          8           0        0.000000    0.000000    2.909519
      3          8           0        0.000000    0.000000   -2.909519
      4          8           0        0.000000    0.000000   -1.557139
 ---------------------------------------------------------------------

 SCF Done:  E(ROHF) =  -298.721126472     A.U. after    8 cycles
 E2 =    -0.2258486838D+01 EUMP2 =    -0.30097961331011D+03
 CCSD(T)
 CCSD(T)= -0.30024224323D+03

 The electronic state is 1-SGG.
 Alpha  occ. eigenvalues --  -20.80587 -20.80585 -20.77837 -20.77837  -1.56238
 Alpha  occ. eigenvalues --   -1.56147  -1.16703  -1.16140  -0.71717  -0.70665
 Alpha  occ. eigenvalues --   -0.67361  -0.67361  -0.66575  -0.66575  -0.34423
 Alpha  occ. eigenvalues --   -0.34423
 Alpha virt. eigenvalues --   -0.21520  -0.21520   0.23372   0.28722   0.58918
 Alpha virt. eigenvalues --    0.69994   0.69994   0.70442   0.72467   0.72467
 Alpha virt. eigenvalues --    0.72696   0.79461   0.79461   0.85110   0.85110

 Mulliken charges and spin densities:
               1          2
     1  O    0.025726   0.000000
     2  O   -0.025726   0.000000
     3  O   -0.025726   0.000000
     4  O    0.025726   0.000000
 Sum of Mulliken charges =  -0.00000   0.00000

 Dipole moment (field-independent basis, Debye):
    X=             -0.0000    Y=              0.0000    Z=              0.0000  Tot=              0.0000
 Quadrupole moment (field-independent basis, Debye-Ang):
   XX=            -20.7769   YY=            -20.7769   ZZ=            -21.7118
   XY=              0.0000   XZ=              0.0000   YZ=              0.0000

 2.0992604\CCSD=-299.9682997\CCSD(T)=-300.2422432\RMSD=1.629e-09\PG=D*H
 Normal termination of Gaussian 16 at Sat Jan 14 20:54:30 2023.
