 Gaussian 16, Revision A.03,
 Gaussian 16:  ES64L-G16RevA.03 25-Dec-2016

 ---------------------------------------------------------------
 #p ROCCSD(T)/cc-pVTZ Guess=Read SCF=(VeryTight,CDIIS,VShift=10)
 ---------------------------------------------------------------

 --------
 O2_O2_53
 --------
 Symbolic Z-matrix:
 Charge =  0 Multiplicity = 1

                         Standard orientation:
 ---------------------------------------------------------------------
 Center     Atomic      Atomic             Coordinates (Angstroms)
 Number     Number       Type             X           Y           Z
 ---------------------------------------------------------------------
      1          8           0        0.000000    0.000000    1.542981
      2          8           0        0.000000    0.000000    2.895361
      3          8           0        0.000000    0.000000   -2.895361
      4          8           0        0.000000    0.000000   -1.542981
 ---------------------------------------------------------------------

 SCF Done:  E(ROHF) =  -298.722432453     A.U. after    8 cycles
 E2 =    -0.2244921065D+01 EUMP2 =    -0.30096735351767D+03
 CCSD(T)
 CCSD(T)= -0.30024100597D+03

 The electronic state is 1-SGG.
 Alpha  occ. eigenvalues --  -20.80633 -20.80631 -20.77826 -20.77825  -1.56254
 Alpha  occ. eigenvalues --   -1.56157  -1.16730  -1.16135  -0.71760  -0.70645
 Alpha  occ. eigenvalues --   -0.67383  -0.67383  -0.66575  -0.66575  -0.34486
 Alpha  occ. eigenvalues --   -0.34486
 Alpha virt. eigenvalues --   -0.21472  -0.21472   0.23365   0.28776   0.59143
 Alpha virt. eigenvalues --    0.69904   0.69904   0.70381   0.72497   0.72497
 Alpha virt. eigenvalues --    0.72667   0.79375   0.79375   0.85274   0.85274

 Mulliken charges and spin densities:
               1          2
     1  O    0.026170   0.000000
     2  O   -0.026170   0.000000
     3  O   -0.026170   0.000000
     4  O    0.026170   0.000000
 Sum of Mulliken charges =  -0.00000   0.00000

 Dipole moment (field-independent basis, Debye):
    X=             -0.0000    Y=              0.0000    Z=              0.0000  Tot=              0.0000
 Quadrupole moment (field-independent basis, Debye-Ang):
   XX=            -20.7787   YY=            -20.7787   ZZ=            -21.7149
   XY=              0.0000   XZ=              0.0000   YZ=              0.0000

 01.9858578\CCSD=-299.9686059\CCSD(T)=-300.241006\RMSD=1.686e-09\PG=D*H
 Normal termination of Gaussian 16 at Sat Jan 14 20:53:03 2023.
