 Gaussian 16, Revision A.03,
 Gaussian 16:  ES64L-G16RevA.03 25-Dec-2016

 ----------------------------------------------------------------------
 #p ROCCSD(T,MaxCyc=250)/cc-pVTZ Guess=Read SCF=(VeryTight,MaxCycle=250
 0,CDIIS,VShift=10)
 ----------------------------------------------------------------------

 ---------
 O2_O2_122
 ---------
 Symbolic Z-matrix:
 Charge =  0 Multiplicity = 1

                         Standard orientation:
 ---------------------------------------------------------------------
 Center     Atomic      Atomic             Coordinates (Angstroms)
 Number     Number       Type             X           Y           Z
 ---------------------------------------------------------------------
      1          8           0        0.000000    0.000000    2.519923
      2          8           0        0.000000    0.000000    3.872303
      3          8           0        0.000000    0.000000   -3.872303
      4          8           0        0.000000    0.000000   -2.519923
 ---------------------------------------------------------------------

 SCF Done:  E(ROHF) =  -298.673903949     A.U. after    7 cycles
 E2 =    -0.3108045222D+01 EUMP2 =    -0.30178194917143D+03
 CCSD(T)
 CCSD(T)= -0.30029077937D+03

 The electronic state is 1-SGG.
 Alpha  occ. eigenvalues --  -20.79385 -20.79384 -20.78289 -20.78288  -1.55905
 Alpha  occ. eigenvalues --   -1.55899  -1.16202  -1.16141  -0.70930  -0.70913
 Alpha  occ. eigenvalues --   -0.66825  -0.66825  -0.66614  -0.66614  -0.32037
 Alpha  occ. eigenvalues --   -0.32037
 Alpha virt. eigenvalues --   -0.23535  -0.23535   0.26123   0.26371   0.67214
 Alpha virt. eigenvalues --    0.68174   0.71656   0.71656   0.71672   0.71672
 Alpha virt. eigenvalues --    0.75123   0.75557   0.81926   0.81926   0.81967

 Mulliken charges and spin densities:
               1          2
     1  O    0.012164   0.000000
     2  O   -0.012164   0.000000
     3  O   -0.012164   0.000000
     4  O    0.012164   0.000000
 Sum of Mulliken charges =  -0.00000   0.00000

 Dipole moment (field-independent basis, Debye):
    X=             -0.0000    Y=              0.0000    Z=              0.0000  Tot=              0.0000
 Quadrupole moment (field-independent basis, Debye-Ang):
   XX=            -20.7397   YY=            -20.7397   ZZ=            -21.4742
   XY=              0.0000   XZ=              0.0000   YZ=              0.0000

 2-0=-301.7819492\MP4SDQ=-320.6995006\CCSD=-299.9603063\CCSD(T)=-300.29
 Normal termination of Gaussian 16 at Sun Jan 15 03:40:12 2023.
