 Gaussian 16, Revision A.03,
 Gaussian 16:  ES64L-G16RevA.03 25-Dec-2016

 ----------------------------------------------------------------------
 #p ROCCSD(T,MaxCyc=250)/cc-pVTZ Guess=Read SCF=(VeryTight,MaxCycle=250
 0,CDIIS,VShift=10)
 ----------------------------------------------------------------------

 ---------
 O2_O2_114
 ---------
 Symbolic Z-matrix:
 Charge =  0 Multiplicity = 1

                         Standard orientation:
 ---------------------------------------------------------------------
 Center     Atomic      Atomic             Coordinates (Angstroms)
 Number     Number       Type             X           Y           Z
 ---------------------------------------------------------------------
      1          8           0        0.000000    0.000000    2.406654
      2          8           0        0.000000    0.000000    3.759034
      3          8           0        0.000000    0.000000   -3.759034
      4          8           0        0.000000    0.000000   -2.406654
 ---------------------------------------------------------------------

 SCF Done:  E(ROHF) =  -298.677260500     A.U. after    7 cycles
 E2 =    -0.3012007983D+01 EUMP2 =    -0.30168926848258D+03
 CCSD(T)
 CCSD(T)= -0.30028713159D+03

 The electronic state is 1-SGG.
 Alpha  occ. eigenvalues --  -20.79435 -20.79435 -20.78251 -20.78251  -1.55912
 Alpha  occ. eigenvalues --   -1.55904  -1.16212  -1.16142  -0.70941  -0.70913
 Alpha  occ. eigenvalues --   -0.66844  -0.66844  -0.66606  -0.66606  -0.32208
 Alpha  occ. eigenvalues --   -0.32208
 Alpha virt. eigenvalues --   -0.23372  -0.23372   0.26013   0.26463   0.66772
 Alpha virt. eigenvalues --    0.68536   0.71642   0.71642   0.71676   0.71676
 Alpha virt. eigenvalues --    0.74950   0.75795   0.81899   0.81899   0.81986

 Mulliken charges and spin densities:
               1          2
     1  O    0.013091  -0.000000
     2  O   -0.013091  -0.000000
     3  O   -0.013091  -0.000000
     4  O    0.013091  -0.000000
 Sum of Mulliken charges =  -0.00000  -0.00000

 Dipole moment (field-independent basis, Debye):
    X=             -0.0000    Y=              0.0000    Z=             -0.0000  Tot=              0.0000
 Quadrupole moment (field-independent basis, Debye-Ang):
   XX=            -20.7400   YY=            -20.7400   ZZ=            -21.5051
   XY=              0.0000   XZ=              0.0000   YZ=              0.0000

 2-0=-301.6892685\MP4SDQ=-317.1890689\CCSD=-299.9606972\CCSD(T)=-300.28
 Normal termination of Gaussian 16 at Sun Jan 15 03:27:40 2023.
