 Gaussian 16, Revision A.03,
 Gaussian 16:  ES64L-G16RevA.03 25-Dec-2016

 ----------------------------------------------------------------------
 #p ROCCSD(T,MaxCyc=250)/cc-pVTZ Guess=Read SCF=(VeryTight,MaxCycle=250
 0,CDIIS,VShift=10)
 ----------------------------------------------------------------------

 ---------
 O2_O2_140
 ---------
 Symbolic Z-matrix:
 Charge =  0 Multiplicity = 1

                         Standard orientation:
 ---------------------------------------------------------------------
 Center     Atomic      Atomic             Coordinates (Angstroms)
 Number     Number       Type             X           Y           Z
 ---------------------------------------------------------------------
      1          8           0        0.000000    0.000000    2.774777
      2          8           0        0.000000    0.000000    4.127157
      3          8           0        0.000000    0.000000   -4.127157
      4          8           0        0.000000    0.000000   -2.774777
 ---------------------------------------------------------------------

 SCF Done:  E(ROHF) =  -298.667280081     A.U. after    6 cycles
 E2 =    -0.3323116816D+01 EUMP2 =    -0.30199039689677D+03
 CCSD(T)
 CCSD(T)= -0.30029807742D+03

 The electronic state is 1-SGG.
 Alpha  occ. eigenvalues --  -20.79295 -20.79295 -20.78361 -20.78361  -1.55895
 Alpha  occ. eigenvalues --   -1.55891  -1.16186  -1.16141  -0.70915  -0.70909
 Alpha  occ. eigenvalues --   -0.66794  -0.66794  -0.66628  -0.66628  -0.31700
 Alpha  occ. eigenvalues --   -0.31700
 Alpha virt. eigenvalues --   -0.23859  -0.23859   0.26230   0.26284   0.67616
 Alpha virt. eigenvalues --    0.67820   0.71670   0.71670   0.71673   0.71673
 Alpha virt. eigenvalues --    0.75291   0.75375   0.81949   0.81949   0.81956

 Mulliken charges and spin densities:
               1          2
     1  O    0.010404   0.000000
     2  O   -0.010404   0.000000
     3  O   -0.010404   0.000000
     4  O    0.010404   0.000000
 Sum of Mulliken charges =  -0.00000   0.00000

 Dipole moment (field-independent basis, Debye):
    X=             -0.0000    Y=             -0.0000    Z=              0.0000  Tot=              0.0000
 Quadrupole moment (field-independent basis, Debye-Ang):
   XX=            -20.7394   YY=            -20.7394   ZZ=            -21.4102
   XY=              0.0000   XZ=              0.0000   YZ=              0.0000

 2-0=-301.9903969\MP4SDQ=-330.2065303\CCSD=-299.9595822\CCSD(T)=-300.29
 Normal termination of Gaussian 16 at Sun Jan 15 04:08:03 2023.
