 Gaussian 16, Revision A.03,
 Gaussian 16:  ES64L-G16RevA.03 25-Dec-2016

 ----------------------------------------------------------------------
 #p ROCCSD(T,MaxCyc=250)/cc-pVTZ Guess=Read SCF=(VeryTight,MaxCycle=250
 0,CDIIS,VShift=10)
 ----------------------------------------------------------------------

 ---------
 O2_O2_135
 ---------
 Symbolic Z-matrix:
 Charge =  0 Multiplicity = 1

                         Standard orientation:
 ---------------------------------------------------------------------
 Center     Atomic      Atomic             Coordinates (Angstroms)
 Number     Number       Type             X           Y           Z
 ---------------------------------------------------------------------
      1          8           0        0.000000    0.000000    2.703984
      2          8           0        0.000000    0.000000    4.056364
      3          8           0        0.000000    0.000000   -4.056364
      4          8           0        0.000000    0.000000   -2.703984
 ---------------------------------------------------------------------

 SCF Done:  E(ROHF) =  -298.669007342     A.U. after    6 cycles
 E2 =    -0.3263476486D+01 EUMP2 =    -0.30193248382792D+03
 CCSD(T)
 CCSD(T)= -0.30029616061D+03

 The electronic state is 1-SGG.
 Alpha  occ. eigenvalues --  -20.79318 -20.79317 -20.78342 -20.78342  -1.55897
 Alpha  occ. eigenvalues --   -1.55893  -1.16190  -1.16141  -0.70918  -0.70910
 Alpha  occ. eigenvalues --   -0.66801  -0.66801  -0.66624  -0.66624  -0.31788
 Alpha  occ. eigenvalues --   -0.31788
 Alpha virt. eigenvalues --   -0.23774  -0.23774   0.26213   0.26297   0.67554
 Alpha virt. eigenvalues --    0.67874   0.71667   0.71667   0.71672   0.71672
 Alpha virt. eigenvalues --    0.75265   0.75399   0.81945   0.81945   0.81956

 Mulliken charges and spin densities:
               1          2
     1  O    0.010852   0.000000
     2  O   -0.010852   0.000000
     3  O   -0.010852   0.000000
     4  O    0.010852   0.000000
 Sum of Mulliken charges =  -0.00000   0.00000

 Dipole moment (field-independent basis, Debye):
    X=             -0.0000    Y=              0.0000    Z=              0.0000  Tot=              0.0000
 Quadrupole moment (field-independent basis, Debye-Ang):
   XX=            -20.7395   YY=            -20.7395   ZZ=            -21.4272
   XY=              0.0000   XZ=              0.0000   YZ=              0.0000

 2-0=-301.9324838\MP4SDQ=-327.3309427\CCSD=-299.9597654\CCSD(T)=-300.29
 Normal termination of Gaussian 16 at Sun Jan 15 03:59:31 2023.
