 Gaussian 16, Revision A.03,
 Gaussian 16:  ES64L-G16RevA.03 25-Dec-2016

 ----------------------------------------------------------------------
 #p ROCCSD(T,MaxCyc=250)/cc-pVTZ Guess=Read SCF=(VeryTight,MaxCycle=250
 0,CDIIS,VShift=10)
 ----------------------------------------------------------------------

 ---------
 O2_O2_129
 ---------
 Symbolic Z-matrix:
 Charge =  0 Multiplicity = 1

                         Standard orientation:
 ---------------------------------------------------------------------
 Center     Atomic      Atomic             Coordinates (Angstroms)
 Number     Number       Type             X           Y           Z
 ---------------------------------------------------------------------
      1          8           0        0.000000    0.000000    2.619033
      2          8           0        0.000000    0.000000    3.971413
      3          8           0        0.000000    0.000000   -3.971413
      4          8           0        0.000000    0.000000   -2.619033
 ---------------------------------------------------------------------

 SCF Done:  E(ROHF) =  -298.671189710     A.U. after    6 cycles
 E2 =    -0.3191815418D+01 EUMP2 =    -0.30186300512849D+03
 CCSD(T)
 CCSD(T)= -0.30029375177D+03

 The electronic state is 1-SGG.
 Alpha  occ. eigenvalues --  -20.79347 -20.79346 -20.78319 -20.78318  -1.55901
 Alpha  occ. eigenvalues --   -1.55895  -1.16195  -1.16141  -0.70923  -0.70912
 Alpha  occ. eigenvalues --   -0.66811  -0.66811  -0.66619  -0.66619  -0.31899
 Alpha  occ. eigenvalues --   -0.31899
 Alpha virt. eigenvalues --   -0.23667  -0.23667   0.26181   0.26323   0.67438
 Alpha virt. eigenvalues --    0.67978   0.71663   0.71663   0.71671   0.71671
 Alpha virt. eigenvalues --    0.75216   0.75450   0.81939   0.81939   0.81959

 Mulliken charges and spin densities:
               1          2
     1  O    0.011430   0.000000
     2  O   -0.011430   0.000000
     3  O   -0.011430   0.000000
     4  O    0.011430   0.000000
 Sum of Mulliken charges =  -0.00000   0.00000

 Dipole moment (field-independent basis, Debye):
    X=             -0.0000    Y=              0.0000    Z=              0.0000  Tot=              0.0000
 Quadrupole moment (field-independent basis, Debye-Ang):
   XX=            -20.7395   YY=            -20.7395   ZZ=            -21.4484
   XY=              0.0000   XZ=              0.0000   YZ=              0.0000

 2-0=-301.8630051\MP4SDQ=-324.1224233\CCSD=-299.9600018\CCSD(T)=-300.29
 Normal termination of Gaussian 16 at Sun Jan 15 03:51:07 2023.
