 Gaussian 16, Revision A.03,
 Gaussian 16:  ES64L-G16RevA.03 25-Dec-2016

 ---------------------------------------------------------------
 #p ROCCSD(T)/cc-pVTZ Guess=Read SCF=(VeryTight,CDIIS,VShift=10)
 ---------------------------------------------------------------

 --------
 O2_O2_39
 --------
 Symbolic Z-matrix:
 Charge =  0 Multiplicity = 1

                         Standard orientation:
 ---------------------------------------------------------------------
 Center     Atomic      Atomic             Coordinates (Angstroms)
 Number     Number       Type             X           Y           Z
 ---------------------------------------------------------------------
      1          8           0        0.000000    0.000000    1.344760
      2          8           0        0.000000    0.000000    2.697140
      3          8           0        0.000000    0.000000   -2.697140
      4          8           0        0.000000    0.000000   -1.344760
 ---------------------------------------------------------------------

 SCF Done:  E(ROHF) =  -298.744938020     A.U. after    8 cycles
 E2 =    -0.2049571271D+01 EUMP2 =    -0.30079450929116D+03
 CCSD(T)
 CCSD(T)= -0.30022090134D+03

 The electronic state is 1-SGG.
 Alpha  occ. eigenvalues --  -20.81472 -20.81469 -20.77599 -20.77598  -1.56563
 Alpha  occ. eigenvalues --   -1.56321  -1.17318  -1.15962  -0.72669  -0.70143
 Alpha  occ. eigenvalues --   -0.67797  -0.67797  -0.66543  -0.66543  -0.35563
 Alpha  occ. eigenvalues --   -0.35563
 Alpha virt. eigenvalues --   -0.20648  -0.20648   0.23489   0.29618   0.65340
 Alpha virt. eigenvalues --    0.68419   0.68419   0.69352   0.72153   0.72901
 Alpha virt. eigenvalues --    0.72901   0.78328   0.78328   0.87927   0.88113

 Mulliken charges and spin densities:
               1          2
     1  O    0.035519   0.000000
     2  O   -0.035519   0.000000
     3  O   -0.035519   0.000000
     4  O    0.035519   0.000000
 Sum of Mulliken charges =  -0.00000   0.00000

 Dipole moment (field-independent basis, Debye):
    X=             -0.0000    Y=              0.0000    Z=             -0.0000  Tot=              0.0000
 Quadrupole moment (field-independent basis, Debye-Ang):
   XX=            -20.8121   YY=            -20.8121   ZZ=            -21.7985
   XY=              0.0000   XZ=              0.0000   YZ=              0.0000

 743806\CCSD=-299.9744817\CCSD(T)=-300.2209013\RMSD=2.355e-09\PG=D*H [C
 Normal termination of Gaussian 16 at Sat Jan 14 20:32:55 2023.
