 Gaussian 16, Revision A.03,
 Gaussian 16:  ES64L-G16RevA.03 25-Dec-2016

 ----------------------------------------------------------------------
 #p ROCCSD(T,MaxCyc=250)/cc-pVTZ Guess=Read SCF=(VeryTight,MaxCycle=250
 0,CDIIS,VShift=10)
 ----------------------------------------------------------------------

 ---------
 O2_O2_112
 ---------
 Symbolic Z-matrix:
 Charge =  0 Multiplicity = 1

                         Standard orientation:
 ---------------------------------------------------------------------
 Center     Atomic      Atomic             Coordinates (Angstroms)
 Number     Number       Type             X           Y           Z
 ---------------------------------------------------------------------
      1          8           0        0.000000    0.000000    2.378337
      2          8           0        0.000000    0.000000    3.730717
      3          8           0        0.000000    0.000000   -3.730717
      4          8           0        0.000000    0.000000   -2.378337
 ---------------------------------------------------------------------

 SCF Done:  E(ROHF) =  -298.678147552     A.U. after    7 cycles
 E2 =    -0.2987934081D+01 EUMP2 =    -0.30166608163308D+03
 CCSD(T)
 CCSD(T)= -0.30028617573D+03

 The electronic state is 1-SGG.
 Alpha  occ. eigenvalues --  -20.79449 -20.79449 -20.78241 -20.78241  -1.55914
 Alpha  occ. eigenvalues --   -1.55906  -1.16215  -1.16142  -0.70945  -0.70913
 Alpha  occ. eigenvalues --   -0.66850  -0.66850  -0.66604  -0.66604  -0.32254
 Alpha  occ. eigenvalues --   -0.32254
 Alpha virt. eigenvalues --   -0.23330  -0.23330   0.25975   0.26493   0.66619
 Alpha virt. eigenvalues --    0.68654   0.71637   0.71637   0.71678   0.71678
 Alpha virt. eigenvalues --    0.74893   0.75885   0.81889   0.81889   0.81994

 Mulliken charges and spin densities:
               1          2
     1  O    0.013340   0.000000
     2  O   -0.013340   0.000000
     3  O   -0.013340   0.000000
     4  O    0.013340   0.000000
 Sum of Mulliken charges =   0.00000   0.00000

 Dipole moment (field-independent basis, Debye):
    X=             -0.0000    Y=              0.0000    Z=              0.0000  Tot=              0.0000
 Quadrupole moment (field-independent basis, Debye-Ang):
   XX=            -20.7401   YY=            -20.7401   ZZ=            -21.5130
   XY=              0.0000   XZ=              0.0000   YZ=              0.0000

 2-0=-301.6660816\MP4SDQ=-316.3755413\CCSD=-299.960805\CCSD(T)=-300.286
 Normal termination of Gaussian 16 at Sun Jan 15 03:24:44 2023.
