 Gaussian 16, Revision A.03,
 Gaussian 16:  ES64L-G16RevA.03 25-Dec-2016

 ---------------------------------------------------------------
 #p ROCCSD(T)/cc-pVTZ Guess=Read SCF=(VeryTight,CDIIS,VShift=10)
 ---------------------------------------------------------------

 -------
 O2_O2_6
 -------
 Symbolic Z-matrix:
 Charge =  0 Multiplicity = 1

                         Standard orientation:
 ---------------------------------------------------------------------
 Center     Atomic      Atomic             Coordinates (Angstroms)
 Number     Number       Type             X           Y           Z
 ---------------------------------------------------------------------
      1          8           0        0.000000    0.000000    0.877527
      2          8           0        0.000000    0.000000    2.229907
      3          8           0        0.000000    0.000000   -2.229907
      4          8           0        0.000000    0.000000   -0.877527
 ---------------------------------------------------------------------

 SCF Done:  E(ROHF) =  -298.820159978     A.U. after   10 cycles
 E2 =    -0.1574058308D+01 EUMP2 =    -0.30039421828603D+03
 CCSD(T)
 CCSD(T)= -0.30015053938D+03

 The electronic state is 1-SGG.
 Alpha  occ. eigenvalues --  -20.85257 -20.85245 -20.75058 -20.75058  -1.59438
 Alpha  occ. eigenvalues --   -1.56141  -1.24272  -1.12409  -0.79243  -0.71069
 Alpha  occ. eigenvalues --   -0.71069  -0.65386  -0.65386  -0.62663  -0.40465
 Alpha  occ. eigenvalues --   -0.40465
 Alpha virt. eigenvalues --   -0.16045  -0.16045   0.23536   0.34652   0.66553
 Alpha virt. eigenvalues --    0.67793   0.67793   0.69164   0.73769   0.73769
 Alpha virt. eigenvalues --    0.79266   0.79266   0.84796   0.85645   0.94789

 Mulliken charges and spin densities:
               1          2
     1  O    0.119273   0.000000
     2  O   -0.119273   0.000000
     3  O   -0.119273   0.000000
     4  O    0.119273   0.000000
 Sum of Mulliken charges =  -0.00000   0.00000

 Dipole moment (field-independent basis, Debye):
    X=             -0.0000    Y=              0.0000    Z=              0.0000  Tot=              0.0000
 Quadrupole moment (field-independent basis, Debye-Ang):
   XX=            -20.8223   YY=            -20.8223   ZZ=            -23.7864
   XY=              0.0000   XZ=              0.0000   YZ=              0.0000

 16737\CCSD=-299.9894824\CCSD(T)=-300.1505394\RMSD=2.042e-09\PG=D*H [C*
 Normal termination of Gaussian 16 at Sat Jan 14 19:45:07 2023.
