 Gaussian 16, Revision A.03,
 Gaussian 16:  ES64L-G16RevA.03 25-Dec-2016

 ----------------------------------------------------------------------
 #p ROCCSD(T,MaxCyc=350)/cc-pVTZ Guess=Read SCF=(VeryTight,MaxCycle=250
 0,CDIIS,VShift=10)
 ----------------------------------------------------------------------

 ---------
 O2_O2_217
 ---------
 Symbolic Z-matrix:
 Charge =  0 Multiplicity = 1

                         Standard orientation:
 ---------------------------------------------------------------------
 Center     Atomic      Atomic             Coordinates (Angstroms)
 Number     Number       Type             X           Y           Z
 ---------------------------------------------------------------------
      1          8           0        0.000000    0.000000    3.864988
      2          8           0        0.000000    0.000000    5.217368
      3          8           0        0.000000    0.000000   -5.217368
      4          8           0        0.000000    0.000000   -3.864988
 ---------------------------------------------------------------------

 SCF Done:  E(ROHF) =  -298.647874456     A.U. after    6 cycles
 E2 =    -0.4237265856D+01 EUMP2 =    -0.30288514031170D+03
 CCSD(T)
 CCSD(T)= -0.30032024857D+03

 The electronic state is 1-SGG.
 Alpha  occ. eigenvalues --  -20.79082 -20.79082 -20.78547 -20.78547  -1.55879
 Alpha  occ. eigenvalues --   -1.55878  -1.16160  -1.16141  -0.70898  -0.70897
 Alpha  occ. eigenvalues --   -0.66731  -0.66731  -0.66661  -0.66661  -0.30718
 Alpha  occ. eigenvalues --   -0.30718
 Alpha virt. eigenvalues --   -0.24818  -0.24818   0.26270   0.26270   0.67734
 Alpha virt. eigenvalues --    0.67738   0.71685   0.71685   0.71685   0.71685
 Alpha virt. eigenvalues --    0.75342   0.75343   0.81963   0.81963   0.81963

 Mulliken charges and spin densities:
               1          2
     1  O    0.005960   0.000000
     2  O   -0.005960   0.000000
     3  O   -0.005960   0.000000
     4  O    0.005960   0.000000
 Sum of Mulliken charges =  -0.00000   0.00000

 Dipole moment (field-independent basis, Debye):
    X=             -0.0000    Y=              0.0000    Z=             -0.0000  Tot=              0.0000
 Quadrupole moment (field-independent basis, Debye-Ang):
   XX=            -20.7394   YY=            -20.7394   ZZ=            -21.2152
   XY=              0.0000   XZ=              0.0000   YZ=              0.0000

 2-0=-302.8851403\MP4SDQ=-402.1495735\CCSD=-299.9577244\CCSD(T)=-300.32
 Normal termination of Gaussian 16 at Sun Jan 15 08:24:20 2023.
