 Gaussian 16, Revision A.03,
 Gaussian 16:  ES64L-G16RevA.03 25-Dec-2016

 ---------------------------------------------------------------
 #p ROCCSD(T)/cc-pVTZ Guess=Read SCF=(VeryTight,CDIIS,VShift=10)
 ---------------------------------------------------------------

 -------
 O2_O2_2
 -------
 Symbolic Z-matrix:
 Charge =  0 Multiplicity = 1

                         Standard orientation:
 ---------------------------------------------------------------------
 Center     Atomic      Atomic             Coordinates (Angstroms)
 Number     Number       Type             X           Y           Z
 ---------------------------------------------------------------------
      1          8           0        0.000000    0.000000    0.820892
      2          8           0        0.000000    0.000000    2.173273
      3          8           0        0.000000    0.000000   -2.173273
      4          8           0        0.000000    0.000000   -0.820892
 ---------------------------------------------------------------------

 SCF Done:  E(ROHF) =  -298.818041199     A.U. after   10 cycles
 E2 =    -0.1526857046D+01 EUMP2 =    -0.30034489824549D+03
 CCSD(T)
 CCSD(T)= -0.30013236279D+03

 The electronic state is 1-SGG.
 Alpha  occ. eigenvalues --  -20.85981 -20.85965 -20.74216 -20.74216  -1.60728
 Alpha  occ. eigenvalues --   -1.55899  -1.26650  -1.11236  -0.80580  -0.72277
 Alpha  occ. eigenvalues --   -0.72277  -0.64954  -0.64954  -0.59863  -0.41366
 Alpha  occ. eigenvalues --   -0.41366
 Alpha virt. eigenvalues --   -0.14952  -0.14952   0.23232   0.36339   0.66069
 Alpha virt. eigenvalues --    0.67884   0.67884   0.68555   0.73984   0.73984
 Alpha virt. eigenvalues --    0.79963   0.79963   0.83974   0.85181   0.95243

 Mulliken charges and spin densities:
               1          2
     1  O    0.143050   0.000000
     2  O   -0.143050   0.000000
     3  O   -0.143050   0.000000
     4  O    0.143050   0.000000
 Sum of Mulliken charges =  -0.00000   0.00000

 Dipole moment (field-independent basis, Debye):
    X=             -0.0000    Y=              0.0000    Z=             -0.0000  Tot=              0.0000
 Quadrupole moment (field-independent basis, Debye-Ang):
   XX=            -20.7759   YY=            -20.7759   ZZ=            -24.5146
   XY=              0.0000   XZ=              0.0000   YZ=              0.0000

 0.0303204\CCSD=-299.9801403\CCSD(T)=-300.1323628\RMSD=1.236e-09\PG=D*H
 Normal termination of Gaussian 16 at Sat Jan 14 19:39:34 2023.
