 Gaussian 16, Revision A.03,
 Gaussian 16:  ES64L-G16RevA.03 25-Dec-2016

 ---------------------------------------------------------------
 #p ROCCSD(T)/cc-pVTZ Guess=Read SCF=(VeryTight,CDIIS,VShift=10)
 ---------------------------------------------------------------

 -------
 O2_O2_7
 -------
 Symbolic Z-matrix:
 Charge =  0 Multiplicity = 1

                         Standard orientation:
 ---------------------------------------------------------------------
 Center     Atomic      Atomic             Coordinates (Angstroms)
 Number     Number       Type             X           Y           Z
 ---------------------------------------------------------------------
      1          8           0        0.000000    0.000000    0.891685
      2          8           0        0.000000    0.000000    2.244066
      3          8           0        0.000000    0.000000   -2.244066
      4          8           0        0.000000    0.000000   -0.891685
 ---------------------------------------------------------------------

 SCF Done:  E(ROHF) =  -298.819436558     A.U. after   10 cycles
 E2 =    -0.1586882931D+01 EUMP2 =    -0.30040631948907D+03
 CCSD(T)
 CCSD(T)= -0.30015414696D+03

 The electronic state is 1-SGG.
 Alpha  occ. eigenvalues --  -20.85095 -20.85084 -20.75238 -20.75238  -1.59198
 Alpha  occ. eigenvalues --   -1.56189  -1.23765  -1.12665  -0.78921  -0.70830
 Alpha  occ. eigenvalues --   -0.70830  -0.65478  -0.65478  -0.63242  -0.40247
 Alpha  occ. eigenvalues --   -0.40247
 Alpha virt. eigenvalues --   -0.16293  -0.16293   0.23583   0.34308   0.66664
 Alpha virt. eigenvalues --    0.67747   0.67747   0.69292   0.73723   0.73723
 Alpha virt. eigenvalues --    0.79116   0.79116   0.84955   0.85755   0.94660

 Mulliken charges and spin densities:
               1          2
     1  O    0.114168  -0.000000
     2  O   -0.114168  -0.000000
     3  O   -0.114168  -0.000000
     4  O    0.114168  -0.000000
 Sum of Mulliken charges =  -0.00000  -0.00000

 Dipole moment (field-independent basis, Debye):
    X=             -0.0000    Y=             -0.0000    Z=             -0.0000  Tot=              0.0000
 Quadrupole moment (field-independent basis, Debye-Ang):
   XX=            -20.8306   YY=            -20.8306   ZZ=            -23.6322
   XY=              0.0000   XZ=              0.0000   YZ=              0.0000

 0.0201528\CCSD=-299.9907062\CCSD(T)=-300.154147\RMSD=1.719e-09\PG=D*H
 Normal termination of Gaussian 16 at Sat Jan 14 19:46:24 2023.
