 Gaussian 16, Revision A.03,
 Gaussian 16:  ES64L-G16RevA.03 25-Dec-2016

 ----------------------------------------------------------------------
 #p ROCCSD(T,MaxCyc=350)/cc-pVTZ Guess=Read SCF=(VeryTight,MaxCycle=250
 0,CDIIS,VShift=10)
 ----------------------------------------------------------------------

 ---------
 O2_O2_191
 ---------
 Symbolic Z-matrix:
 Charge =  0 Multiplicity = 1

                         Standard orientation:
 ---------------------------------------------------------------------
 Center     Atomic      Atomic             Coordinates (Angstroms)
 Number     Number       Type             X           Y           Z
 ---------------------------------------------------------------------
      1          8           0        0.000000    0.000000    3.496865
      2          8           0        0.000000    0.000000    4.849245
      3          8           0        0.000000    0.000000   -4.849245
      4          8           0        0.000000    0.000000   -3.496865
 ---------------------------------------------------------------------

 SCF Done:  E(ROHF) =  -298.653233215     A.U. after    6 cycles
 E2 =    -0.3929218954D+01 EUMP2 =    -0.30258245216911D+03
 CCSD(T)
 CCSD(T)= -0.30031400978D+03

 The electronic state is 1-SGG.
 Alpha  occ. eigenvalues --  -20.79134 -20.79134 -20.78500 -20.78500  -1.55882
 Alpha  occ. eigenvalues --   -1.55881  -1.16165  -1.16141  -0.70901  -0.70900
 Alpha  occ. eigenvalues --   -0.66745  -0.66745  -0.66653  -0.66653  -0.30988
 Alpha  occ. eigenvalues --   -0.30988
 Alpha virt. eigenvalues --   -0.24552  -0.24552   0.26267   0.26268   0.67730
 Alpha virt. eigenvalues --    0.67736   0.71682   0.71682   0.71682   0.71682
 Alpha virt. eigenvalues --    0.75340   0.75341   0.81961   0.81961   0.81961

 Mulliken charges and spin densities:
               1          2
     1  O    0.007073   0.000000
     2  O   -0.007073   0.000000
     3  O   -0.007073   0.000000
     4  O    0.007073   0.000000
 Sum of Mulliken charges =  -0.00000   0.00000

 Dipole moment (field-independent basis, Debye):
    X=             -0.0000    Y=              0.0000    Z=             -0.0000  Tot=              0.0000
 Quadrupole moment (field-independent basis, Debye-Ang):
   XX=            -20.7394   YY=            -20.7394   ZZ=            -21.2695
   XY=              0.0000   XZ=              0.0000   YZ=              0.0000

 2-0=-302.5824522\MP4SDQ=-371.4552345\CCSD=-299.9582038\CCSD(T)=-300.31
 Normal termination of Gaussian 16 at Sun Jan 15 07:14:04 2023.
