 Gaussian 16, Revision A.03,
 Gaussian 16:  ES64L-G16RevA.03 25-Dec-2016

 ---------------------------------------------------------------
 #p ROCCSD(T)/cc-pVTZ Guess=Read SCF=(VeryTight,CDIIS,VShift=10)
 ---------------------------------------------------------------

 --------
 O2_O2_94
 --------
 Symbolic Z-matrix:
 Charge =  0 Multiplicity = 1

                         Standard orientation:
 ---------------------------------------------------------------------
 Center     Atomic      Atomic             Coordinates (Angstroms)
 Number     Number       Type             X           Y           Z
 ---------------------------------------------------------------------
      1          8           0        0.000000    0.000000    2.123482
      2          8           0        0.000000    0.000000    3.475862
      3          8           0        0.000000    0.000000   -3.475862
      4          8           0        0.000000    0.000000   -2.123482
 ---------------------------------------------------------------------

 SCF Done:  E(ROHF) =  -298.687222628     A.U. after    7 cycles
 E2 =    -0.2769512967D+01 EUMP2 =    -0.30145673559427D+03
 CCSD(T)
 CCSD(T)= -0.30027648900D+03

 The electronic state is 1-SGG.
 Alpha  occ. eigenvalues --  -20.79612 -20.79611 -20.78143 -20.78143  -1.55944
 Alpha  occ. eigenvalues --   -1.55930  -1.16258  -1.16148  -0.71005  -0.70907
 Alpha  occ. eigenvalues --   -0.66917  -0.66917  -0.66588  -0.66588  -0.32718
 Alpha  occ. eigenvalues --   -0.32718
 Alpha virt. eigenvalues --   -0.22905  -0.22905   0.25387   0.26931   0.64085
 Alpha virt. eigenvalues --    0.70085   0.71543   0.71543   0.71731   0.71731
 Alpha virt. eigenvalues --    0.74163   0.77963   0.81691   0.81691   0.82169

 Mulliken charges and spin densities:
               1          2
     1  O    0.015919   0.000000
     2  O   -0.015919   0.000000
     3  O   -0.015919   0.000000
     4  O    0.015919   0.000000
 Sum of Mulliken charges =   0.00000   0.00000

 Dipole moment (field-independent basis, Debye):
    X=             -0.0000    Y=             -0.0000    Z=             -0.0000  Tot=              0.0000
 Quadrupole moment (field-independent basis, Debye-Ang):
   XX=            -20.7426   YY=            -20.7426   ZZ=            -21.5844
   XY=              0.0000   XZ=              0.0000   YZ=              0.0000

 10.1254366\CCSD=-299.9619853\CCSD(T)=-300.276489\RMSD=2.985e-09\PG=D*H
 Normal termination of Gaussian 16 at Sat Jan 14 21:55:25 2023.
