 Gaussian 16, Revision A.03,
 Gaussian 16:  ES64L-G16RevA.03 25-Dec-2016

 ---------------------------------------------------------------
 #p ROCCSD(T)/cc-pVTZ Guess=Read SCF=(VeryTight,CDIIS,VShift=10)
 ---------------------------------------------------------------

 --------
 O2_O2_82
 --------
 Symbolic Z-matrix:
 Charge =  0 Multiplicity = 1

                         Standard orientation:
 ---------------------------------------------------------------------
 Center     Atomic      Atomic             Coordinates (Angstroms)
 Number     Number       Type             X           Y           Z
 ---------------------------------------------------------------------
      1          8           0        0.000000    0.000000    1.953579
      2          8           0        0.000000    0.000000    3.305959
      3          8           0        0.000000    0.000000   -3.305959
      4          8           0        0.000000    0.000000   -1.953579
 ---------------------------------------------------------------------

 SCF Done:  E(ROHF) =  -298.694753342     A.U. after    7 cycles
 E2 =    -0.2621181574D+01 EUMP2 =    -0.30131593491646D+03
 CCSD(T)
 CCSD(T)= -0.30026860565D+03

 The electronic state is 1-SGG.
 Alpha  occ. eigenvalues --  -20.79780 -20.79779 -20.78068 -20.78068  -1.55986
 Alpha  occ. eigenvalues --   -1.55963  -1.16315  -1.16156  -0.71091  -0.70891
 Alpha  occ. eigenvalues --   -0.66990  -0.66990  -0.66580  -0.66580  -0.33103
 Alpha  occ. eigenvalues --   -0.33103
 Alpha virt. eigenvalues --   -0.22570  -0.22570   0.24699   0.27386   0.61232
 Alpha virt. eigenvalues --    0.70838   0.71373   0.71373   0.71836   0.71836
 Alpha virt. eigenvalues --    0.73613   0.81350   0.81350   0.81917   0.82504

 Mulliken charges and spin densities:
               1          2
     1  O    0.018060   0.000000
     2  O   -0.018060   0.000000
     3  O   -0.018060   0.000000
     4  O    0.018060   0.000000
 Sum of Mulliken charges =  -0.00000   0.00000

 Dipole moment (field-independent basis, Debye):
    X=             -0.0000    Y=             -0.0000    Z=              0.0000  Tot=              0.0000
 Quadrupole moment (field-independent basis, Debye-Ang):
   XX=            -20.7469   YY=            -20.7469   ZZ=            -21.6287
   XY=              0.0000   XZ=              0.0000   YZ=              0.0000

 9403818\CCSD=-299.9631166\CCSD(T)=-300.2686057\RMSD=5.355e-09\PG=D*H [
 Normal termination of Gaussian 16 at Sat Jan 14 21:36:48 2023.
