 Gaussian 16, Revision A.03,
 Gaussian 16:  ES64L-G16RevA.03 25-Dec-2016

 ---------------------------------------------------------------
 #p ROCCSD(T)/cc-pVTZ Guess=Read SCF=(VeryTight,CDIIS,VShift=10)
 ---------------------------------------------------------------

 --------
 O2_O2_28
 --------
 Symbolic Z-matrix:
 Charge =  0 Multiplicity = 1

                         Standard orientation:
 ---------------------------------------------------------------------
 Center     Atomic      Atomic             Coordinates (Angstroms)
 Number     Number       Type             X           Y           Z
 ---------------------------------------------------------------------
      1          8           0        0.000000    0.000000    1.189016
      2          8           0        0.000000    0.000000    2.541396
      3          8           0        0.000000    0.000000   -2.541396
      4          8           0        0.000000    0.000000   -1.189016
 ---------------------------------------------------------------------

 SCF Done:  E(ROHF) =  -298.769344580     A.U. after    8 cycles
 E2 =    -0.1889480849D+01 EUMP2 =    -0.30065882542881D+03
 CCSD(T)
 CCSD(T)= -0.30020163652D+03

 The electronic state is 1-SGG.
 Alpha  occ. eigenvalues --  -20.82433 -20.82428 -20.77247 -20.77246  -1.56982
 Alpha  occ. eigenvalues --   -1.56442  -1.18270  -1.15540  -0.73971  -0.69212
 Alpha  occ. eigenvalues --   -0.68337  -0.68337  -0.66433  -0.66433  -0.36736
 Alpha  occ. eigenvalues --   -0.36736
 Alpha virt. eigenvalues --   -0.19707  -0.19707   0.23663   0.30516   0.67417
 Alpha virt. eigenvalues --    0.67417   0.68501   0.71431   0.73157   0.73157
 Alpha virt. eigenvalues --    0.74289   0.77931   0.77931   0.87418   0.88404

 Mulliken charges and spin densities:
               1          2
     1  O    0.049897   0.000000
     2  O   -0.049897   0.000000
     3  O   -0.049897   0.000000
     4  O    0.049897   0.000000
 Sum of Mulliken charges =  -0.00000   0.00000

 Dipole moment (field-independent basis, Debye):
    X=             -0.0000    Y=              0.0000    Z=              0.0000  Tot=              0.0000
 Quadrupole moment (field-independent basis, Debye-Ang):
   XX=            -20.8450   YY=            -20.8450   ZZ=            -22.0060
   XY=              0.0000   XZ=              0.0000   YZ=              0.0000

 00.2620167\CCSD=-299.9817426\CCSD(T)=-300.2016365\RMSD=3.853e-09\PG=D*
 Normal termination of Gaussian 16 at Sat Jan 14 20:17:00 2023.
