 Gaussian 16, Revision A.03,
 Gaussian 16:  ES64L-G16RevA.03 25-Dec-2016

 ---------------------------------------------------------------
 #p ROCCSD(T)/cc-pVTZ Guess=Read SCF=(VeryTight,CDIIS,VShift=10)
 ---------------------------------------------------------------

 --------
 O2_O2_34
 --------
 Symbolic Z-matrix:
 Charge =  0 Multiplicity = 1

                         Standard orientation:
 ---------------------------------------------------------------------
 Center     Atomic      Atomic             Coordinates (Angstroms)
 Number     Number       Type             X           Y           Z
 ---------------------------------------------------------------------
      1          8           0        0.000000    0.000000    1.273967
      2          8           0        0.000000    0.000000    2.626348
      3          8           0        0.000000    0.000000   -2.626348
      4          8           0        0.000000    0.000000   -1.273967
 ---------------------------------------------------------------------

 SCF Done:  E(ROHF) =  -298.755243760     A.U. after    8 cycles
 E2 =    -0.1977409590D+01 EUMP2 =    -0.30073265334986D+03
 CCSD(T)
 CCSD(T)= -0.30021247749D+03

 The electronic state is 1-SGG.
 Alpha  occ. eigenvalues --  -20.81873 -20.81869 -20.77467 -20.77467  -1.56727
 Alpha  occ. eigenvalues --   -1.56382  -1.17673  -1.15817  -0.73178  -0.69807
 Alpha  occ. eigenvalues --   -0.68012  -0.68012  -0.66508  -0.66508  -0.36053
 Alpha  occ. eigenvalues --   -0.36053
 Alpha virt. eigenvalues --   -0.20263  -0.20263   0.23573   0.29987   0.67897
 Alpha virt. eigenvalues --    0.67897   0.68959   0.68981   0.71884   0.73025
 Alpha virt. eigenvalues --    0.73025   0.78087   0.78087   0.87719   0.88489

 Mulliken charges and spin densities:
               1          2
     1  O    0.040959   0.000000
     2  O   -0.040959   0.000000
     3  O   -0.040959   0.000000
     4  O    0.040959   0.000000
 Sum of Mulliken charges =   0.00000   0.00000

 Dipole moment (field-independent basis, Debye):
    X=             -0.0000    Y=             -0.0000    Z=             -0.0000  Tot=              0.0000
 Quadrupole moment (field-independent basis, Debye-Ang):
   XX=            -20.8269   YY=            -20.8269   ZZ=            -21.8670
   XY=              0.0000   XZ=              0.0000   YZ=              0.0000

 00.4984523\CCSD=-299.9774754\CCSD(T)=-300.2124775\RMSD=2.645e-09\PG=D*
 Normal termination of Gaussian 16 at Sat Jan 14 20:25:25 2023.
