 Gaussian 16, Revision A.03,
 Gaussian 16:  ES64L-G16RevA.03 25-Dec-2016

 ---------------------------------------------------------------
 #p ROCCSD(T)/cc-pVTZ Guess=Read SCF=(VeryTight,CDIIS,VShift=10)
 ---------------------------------------------------------------

 --------
 O2_O2_25
 --------
 Symbolic Z-matrix:
 Charge =  0 Multiplicity = 1

                         Standard orientation:
 ---------------------------------------------------------------------
 Center     Atomic      Atomic             Coordinates (Angstroms)
 Number     Number       Type             X           Y           Z
 ---------------------------------------------------------------------
      1          8           0        0.000000    0.000000    1.146540
      2          8           0        0.000000    0.000000    2.498920
      3          8           0        0.000000    0.000000   -2.498920
      4          8           0        0.000000    0.000000   -1.146540
 ---------------------------------------------------------------------

 SCF Done:  E(ROHF) =  -298.777045509     A.U. after    8 cycles
 E2 =    -0.1845149368D+01 EUMP2 =    -0.30062219487713D+03
 CCSD(T)
 CCSD(T)= -0.30019597380D+03

 The electronic state is 1-SGG.
 Alpha  occ. eigenvalues --  -20.82745 -20.82740 -20.77100 -20.77100  -1.57141
 Alpha  occ. eigenvalues --   -1.56462  -1.18666  -1.15342  -0.74457  -0.68806
 Alpha  occ. eigenvalues --   -0.68535  -0.68535  -0.66375  -0.66375  -0.37122
 Alpha  occ. eigenvalues --   -0.37122
 Alpha virt. eigenvalues --   -0.19379  -0.19379   0.23698   0.30830   0.67269
 Alpha virt. eigenvalues --    0.67269   0.68274   0.71177   0.73220   0.73220
 Alpha virt. eigenvalues --    0.77187   0.77918   0.77918   0.87244   0.88394

 Mulliken charges and spin densities:
               1          2
     1  O    0.055628   0.000000
     2  O   -0.055628   0.000000
     3  O   -0.055628   0.000000
     4  O    0.055628   0.000000
 Sum of Mulliken charges =  -0.00000   0.00000

 Dipole moment (field-independent basis, Debye):
    X=             -0.0000    Y=             -0.0000    Z=             -0.0000  Tot=              0.0000
 Quadrupole moment (field-independent basis, Debye-Ang):
   XX=            -20.8531   YY=            -20.8531   ZZ=            -22.1095
   XY=              0.0000   XZ=              0.0000   YZ=              0.0000

 178443\CCSD=-299.9841005\CCSD(T)=-300.1959738\RMSD=5.278e-09\PG=D*H [C
 Normal termination of Gaussian 16 at Sat Jan 14 20:12:26 2023.
