 Gaussian 16, Revision A.03,
 Gaussian 16:  ES64L-G16RevA.03 25-Dec-2016

 ----------------------------------------------------------------------
 #p ROCCSD(T,MaxCyc=250)/cc-pVTZ Guess=Read SCF=(VeryTight,MaxCycle=250
 0,CDIIS,VShift=10)
 ----------------------------------------------------------------------

 ---------
 O2_O2_137
 ---------
 Symbolic Z-matrix:
 Charge =  0 Multiplicity = 1

                         Standard orientation:
 ---------------------------------------------------------------------
 Center     Atomic      Atomic             Coordinates (Angstroms)
 Number     Number       Type             X           Y           Z
 ---------------------------------------------------------------------
      1          8           0        0.000000    0.000000    2.732301
      2          8           0        0.000000    0.000000    4.084681
      3          8           0        0.000000    0.000000   -4.084681
      4          8           0        0.000000    0.000000   -2.732301
 ---------------------------------------------------------------------

 SCF Done:  E(ROHF) =  -298.668306912     A.U. after    6 cycles
 E2 =    -0.3287339987D+01 EUMP2 =    -0.30195564689828D+03
 CCSD(T)
 CCSD(T)= -0.30029693642D+03

 The electronic state is 1-SGG.
 Alpha  occ. eigenvalues --  -20.79308 -20.79308 -20.78350 -20.78350  -1.55897
 Alpha  occ. eigenvalues --   -1.55892  -1.16188  -1.16141  -0.70917  -0.70910
 Alpha  occ. eigenvalues --   -0.66798  -0.66798  -0.66626  -0.66626  -0.31752
 Alpha  occ. eigenvalues --   -0.31752
 Alpha virt. eigenvalues --   -0.23808  -0.23808   0.26221   0.26291   0.67582
 Alpha virt. eigenvalues --    0.67850   0.71669   0.71669   0.71672   0.71672
 Alpha virt. eigenvalues --    0.75277   0.75388   0.81947   0.81947   0.81956

 Mulliken charges and spin densities:
               1          2
     1  O    0.010669   0.000000
     2  O   -0.010669   0.000000
     3  O   -0.010669   0.000000
     4  O    0.010669   0.000000
 Sum of Mulliken charges =  -0.00000   0.00000

 Dipole moment (field-independent basis, Debye):
    X=             -0.0000    Y=             -0.0000    Z=             -0.0000  Tot=              0.0000
 Quadrupole moment (field-independent basis, Debye-Ang):
   XX=            -20.7395   YY=            -20.7395   ZZ=            -21.4203
   XY=              0.0000   XZ=              0.0000   YZ=              0.0000

 2-0=-301.9556469\MP4SDQ=-328.458757\CCSD=-299.9596905\CCSD(T)=-300.296
 Normal termination of Gaussian 16 at Sun Jan 15 04:03:46 2023.
