 Gaussian 16, Revision A.03,
 Gaussian 16:  ES64L-G16RevA.03 25-Dec-2016

 ----------------------------------------------------------------------
 #p ROCCSD(T,MaxCyc=350)/cc-pVTZ Guess=Read SCF=(VeryTight,MaxCycle=250
 0,CDIIS,VShift=10)
 ----------------------------------------------------------------------

 ---------
 O2_O2_252
 ---------
 Symbolic Z-matrix:
 Charge =  0 Multiplicity = 1

                         Standard orientation:
 ---------------------------------------------------------------------
 Center     Atomic      Atomic             Coordinates (Angstroms)
 Number     Number       Type             X           Y           Z
 ---------------------------------------------------------------------
      1          8           0        0.000000    0.000000    4.360538
      2          8           0        0.000000    0.000000    5.712918
      3          8           0        0.000000    0.000000   -5.712918
      4          8           0        0.000000    0.000000   -4.360538
 ---------------------------------------------------------------------

 SCF Done:  E(ROHF) =  -298.641942569     A.U. after    6 cycles
 E2 =    -0.4651296251D+01 EUMP2 =    -0.30329323881928D+03
 CCSD(T)
 CCSD(T)= -0.30032725402D+03

 The electronic state is 1-SGG.
 Alpha  occ. eigenvalues --  -20.79030 -20.79030 -20.78595 -20.78595  -1.55876
 Alpha  occ. eigenvalues --   -1.55876  -1.16155  -1.16142  -0.70896  -0.70895
 Alpha  occ. eigenvalues --   -0.66719  -0.66719  -0.66668  -0.66668  -0.30419
 Alpha  occ. eigenvalues --   -0.30419
 Alpha virt. eigenvalues --   -0.25113  -0.25113   0.26272   0.26272   0.67738
 Alpha virt. eigenvalues --    0.67740   0.71687   0.71687   0.71687   0.71687
 Alpha virt. eigenvalues --    0.75343   0.75344   0.81964   0.81964   0.81965

 Mulliken charges and spin densities:
               1          2
     1  O    0.004834   0.000000
     2  O   -0.004834   0.000000
     3  O   -0.004834   0.000000
     4  O    0.004834   0.000000
 Sum of Mulliken charges =  -0.00000   0.00000

 Dipole moment (field-independent basis, Debye):
    X=             -0.0000    Y=              0.0000    Z=             -0.0000  Tot=              0.0000
 Quadrupole moment (field-independent basis, Debye-Ang):
   XX=            -20.7394   YY=            -20.7394   ZZ=            -21.1547
   XY=              0.0000   XZ=              0.0000   YZ=              0.0000

 P2-0=-303.2932388\MP4SDQ=-455.6735155\CCSD=-299.9572201\CCSD(T)=-300.3
 Normal termination of Gaussian 16 at Sun Jan 15 09:31:14 2023.
