 Gaussian 16, Revision A.03,
 Gaussian 16:  ES64L-G16RevA.03 25-Dec-2016

 ---------------------------------------------------------------
 #p ROCCSD(T)/cc-pVTZ Guess=Read SCF=(VeryTight,CDIIS,VShift=10)
 ---------------------------------------------------------------

 --------
 O2_O2_65
 --------
 Symbolic Z-matrix:
 Charge =  0 Multiplicity = 1

                         Standard orientation:
 ---------------------------------------------------------------------
 Center     Atomic      Atomic             Coordinates (Angstroms)
 Number     Number       Type             X           Y           Z
 ---------------------------------------------------------------------
      1          8           0        0.000000    0.000000    1.712883
      2          8           0        0.000000    0.000000    3.065264
      3          8           0        0.000000    0.000000   -3.065264
      4          8           0        0.000000    0.000000   -1.712883
 ---------------------------------------------------------------------

 SCF Done:  E(ROHF) =  -298.708747880     A.U. after    7 cycles
 E2 =    -0.2404583437D+01 EUMP2 =    -0.30111333131660D+03
 CCSD(T)
 CCSD(T)= -0.30025432810D+03

 The electronic state is 1-SGG.
 Alpha  occ. eigenvalues --  -20.80174 -20.80172 -20.77943 -20.77943  -1.56101
 Alpha  occ. eigenvalues --   -1.56052  -1.16484  -1.16163  -0.71360  -0.70812
 Alpha  occ. eigenvalues --   -0.67168  -0.67168  -0.66577  -0.66577  -0.33811
 Alpha  occ. eigenvalues --   -0.33811
 Alpha virt. eigenvalues --   -0.21993  -0.21993   0.23666   0.28165   0.58138
 Alpha virt. eigenvalues --    0.70775   0.70775   0.70917   0.72158   0.72158
 Alpha virt. eigenvalues --    0.73009   0.80371   0.80371   0.83662   0.83662

 Mulliken charges and spin densities:
               1          2
     1  O    0.021949   0.000000
     2  O   -0.021949   0.000000
     3  O   -0.021949   0.000000
     4  O    0.021949   0.000000
 Sum of Mulliken charges =  -0.00000   0.00000

 Dipole moment (field-independent basis, Debye):
    X=             -0.0000    Y=              0.0000    Z=              0.0000  Tot=              0.0000
 Quadrupole moment (field-independent basis, Debye-Ang):
   XX=            -20.7605   YY=            -20.7605   ZZ=            -21.6814
   XY=              0.0000   XZ=              0.0000   YZ=              0.0000

 03.6040382\CCSD=-299.9656277\CCSD(T)=-300.2543281\RMSD=6.189e-09\PG=D*
 Normal termination of Gaussian 16 at Sat Jan 14 21:11:51 2023.
