 Gaussian 16, Revision A.03,
 Gaussian 16:  ES64L-G16RevA.03 25-Dec-2016

 ----------------------------------------------------------------------
 #p ROCCSD(T,MaxCyc=250)/cc-pVTZ Guess=Read SCF=(VeryTight,MaxCycle=250
 0,CDIIS,VShift=10)
 ----------------------------------------------------------------------

 ---------
 O2_O2_107
 ---------
 Symbolic Z-matrix:
 Charge =  0 Multiplicity = 1

                         Standard orientation:
 ---------------------------------------------------------------------
 Center     Atomic      Atomic             Coordinates (Angstroms)
 Number     Number       Type             X           Y           Z
 ---------------------------------------------------------------------
      1          8           0        0.000000    0.000000    2.307544
      2          8           0        0.000000    0.000000    3.659924
      3          8           0        0.000000    0.000000   -3.659924
      4          8           0        0.000000    0.000000   -2.307544
 ---------------------------------------------------------------------

 SCF Done:  E(ROHF) =  -298.680459390     A.U. after    7 cycles
 E2 =    -0.2927610280D+01 EUMP2 =    -0.30160806966963D+03
 CCSD(T)
 CCSD(T)= -0.30028368470D+03

 The electronic state is 1-SGG.
 Alpha  occ. eigenvalues --  -20.79487 -20.79486 -20.78216 -20.78216  -1.55920
 Alpha  occ. eigenvalues --   -1.55911  -1.16224  -1.16143  -0.70956  -0.70913
 Alpha  occ. eigenvalues --   -0.66865  -0.66865  -0.66600  -0.66600  -0.32372
 Alpha  occ. eigenvalues --   -0.32372
 Alpha virt. eigenvalues --   -0.23220  -0.23220   0.25861   0.26584   0.66139
 Alpha virt. eigenvalues --    0.68998   0.71622   0.71622   0.71685   0.71685
 Alpha virt. eigenvalues --    0.74726   0.76192   0.81857   0.81857   0.82020

 Mulliken charges and spin densities:
               1          2
     1  O    0.013991   0.000000
     2  O   -0.013991   0.000000
     3  O   -0.013991   0.000000
     4  O    0.013991   0.000000
 Sum of Mulliken charges =  -0.00000   0.00000

 Dipole moment (field-independent basis, Debye):
    X=             -0.0000    Y=             -0.0000    Z=             -0.0000  Tot=              0.0000
 Quadrupole moment (field-independent basis, Debye-Ang):
   XX=            -20.7405   YY=            -20.7405   ZZ=            -21.5329
   XY=              0.0000   XZ=              0.0000   YZ=              0.0000

 2-0=-301.6080697\MP4SDQ=-314.449596\CCSD=-299.9610878\CCSD(T)=-300.283
 Normal termination of Gaussian 16 at Sun Jan 15 03:16:52 2023.
