 Gaussian 16, Revision A.03,
 Gaussian 16:  ES64L-G16RevA.03 25-Dec-2016

 ----------------------------------------------------------------------
 #p ROCCSD(T,MaxCyc=250)/cc-pVTZ Guess=Read SCF=(VeryTight,MaxCycle=250
 0,CDIIS,VShift=10)
 ----------------------------------------------------------------------

 ---------
 O2_O2_134
 ---------
 Symbolic Z-matrix:
 Charge =  0 Multiplicity = 1

                         Standard orientation:
 ---------------------------------------------------------------------
 Center     Atomic      Atomic             Coordinates (Angstroms)
 Number     Number       Type             X           Y           Z
 ---------------------------------------------------------------------
      1          8           0        0.000000    0.000000    2.689826
      2          8           0        0.000000    0.000000    4.042206
      3          8           0        0.000000    0.000000   -4.042206
      4          8           0        0.000000    0.000000   -2.689826
 ---------------------------------------------------------------------

 SCF Done:  E(ROHF) =  -298.669362481     A.U. after    6 cycles
 E2 =    -0.3251540655D+01 EUMP2 =    -0.30192090313553D+03
 CCSD(T)
 CCSD(T)= -0.30029576798D+03

 The electronic state is 1-SGG.
 Alpha  occ. eigenvalues --  -20.79322 -20.79322 -20.78338 -20.78338  -1.55898
 Alpha  occ. eigenvalues --   -1.55893  -1.16191  -1.16141  -0.70919  -0.70910
 Alpha  occ. eigenvalues --   -0.66803  -0.66803  -0.66623  -0.66623  -0.31806
 Alpha  occ. eigenvalues --   -0.31806
 Alpha virt. eigenvalues --   -0.23756  -0.23756   0.26209   0.26301   0.67538
 Alpha virt. eigenvalues --    0.67888   0.71667   0.71667   0.71672   0.71672
 Alpha virt. eigenvalues --    0.75259   0.75406   0.81944   0.81944   0.81957

 Mulliken charges and spin densities:
               1          2
     1  O    0.010945  -0.000000
     2  O   -0.010945  -0.000000
     3  O   -0.010945  -0.000000
     4  O    0.010945  -0.000000
 Sum of Mulliken charges =  -0.00000  -0.00000

 Dipole moment (field-independent basis, Debye):
    X=             -0.0000    Y=              0.0000    Z=              0.0000  Tot=              0.0000
 Quadrupole moment (field-independent basis, Debye-Ang):
   XX=            -20.7395   YY=            -20.7395   ZZ=            -21.4306
   XY=              0.0000   XZ=              0.0000   YZ=              0.0000

 -0=-301.9209031\MP4SDQ=-326.7780934\CCSD=-299.9598036\CCSD(T)=-300.295
 Normal termination of Gaussian 16 at Sun Jan 15 03:58:07 2023.
