 Gaussian 16, Revision A.03,
 Gaussian 16:  ES64L-G16RevA.03 25-Dec-2016

 ---------------------------------------------------------------
 #p ROCCSD(T)/cc-pVTZ Guess=Read SCF=(VeryTight,CDIIS,VShift=10)
 ---------------------------------------------------------------

 --------
 O2_O2_75
 --------
 Symbolic Z-matrix:
 Charge =  0 Multiplicity = 1

                         Standard orientation:
 ---------------------------------------------------------------------
 Center     Atomic      Atomic             Coordinates (Angstroms)
 Number     Number       Type             X           Y           Z
 ---------------------------------------------------------------------
      1          8           0        0.000000    0.000000    1.854469
      2          8           0        0.000000    0.000000    3.206849
      3          8           0        0.000000    0.000000   -3.206849
      4          8           0        0.000000    0.000000   -1.854469
 ---------------------------------------------------------------------

 SCF Done:  E(ROHF) =  -298.699937370     A.U. after    7 cycles
 E2 =    -0.2533107051D+01 EUMP2 =    -0.30123304442177D+03
 CCSD(T)
 CCSD(T)= -0.30026325545D+03

 The electronic state is 1-SGG.
 Alpha  occ. eigenvalues --  -20.79915 -20.79914 -20.78020 -20.78020  -1.56023
 Alpha  occ. eigenvalues --   -1.55993  -1.16368  -1.16161  -0.71173  -0.70870
 Alpha  occ. eigenvalues --   -0.67050  -0.67050  -0.66578  -0.66578  -0.33367
 Alpha  occ. eigenvalues --   -0.33367
 Alpha virt. eigenvalues --   -0.22350  -0.22350   0.24237   0.27694   0.59574
 Alpha virt. eigenvalues --    0.71006   0.71195   0.71195   0.71941   0.71941
 Alpha virt. eigenvalues --    0.73337   0.81025   0.81025   0.82855   0.82855

 Mulliken charges and spin densities:
               1          2
     1  O    0.019506   0.000000
     2  O   -0.019506   0.000000
     3  O   -0.019506   0.000000
     4  O    0.019506   0.000000
 Sum of Mulliken charges =   0.00000   0.00000

 Dipole moment (field-independent basis, Debye):
    X=             -0.0000    Y=              0.0000    Z=              0.0000  Tot=              0.0000
 Quadrupole moment (field-independent basis, Debye-Ang):
   XX=            -20.7512   YY=            -20.7512   ZZ=            -21.6520
   XY=              0.0000   XZ=              0.0000   YZ=              0.0000

 05.4087399\CCSD=-299.9639837\CCSD(T)=-300.2632554\RMSD=7.335e-09\PG=D*
 Normal termination of Gaussian 16 at Sat Jan 14 21:26:57 2023.
