 Gaussian 16, Revision A.03,
 Gaussian 16:  ES64L-G16RevA.03 25-Dec-2016

 ---------------------------------------------------------------
 #p ROCCSD(T)/cc-pVTZ Guess=Read SCF=(VeryTight,CDIIS,VShift=10)
 ---------------------------------------------------------------

 --------
 O2_O2_81
 --------
 Symbolic Z-matrix:
 Charge =  0 Multiplicity = 1

                         Standard orientation:
 ---------------------------------------------------------------------
 Center     Atomic      Atomic             Coordinates (Angstroms)
 Number     Number       Type             X           Y           Z
 ---------------------------------------------------------------------
      1          8           0        0.000000    0.000000    1.939421
      2          8           0        0.000000    0.000000    3.291801
      3          8           0        0.000000    0.000000   -3.291801
      4          8           0        0.000000    0.000000   -1.939421
 ---------------------------------------------------------------------

 SCF Done:  E(ROHF) =  -298.695453041     A.U. after    7 cycles
 E2 =    -0.2608679931D+01 EUMP2 =    -0.30130413297163D+03
 CCSD(T)
 CCSD(T)= -0.30026787948D+03

 The electronic state is 1-SGG.
 Alpha  occ. eigenvalues --  -20.79798 -20.79797 -20.78061 -20.78061  -1.55990
 Alpha  occ. eigenvalues --   -1.55967  -1.16322  -1.16156  -0.71101  -0.70889
 Alpha  occ. eigenvalues --   -0.66998  -0.66998  -0.66580  -0.66580  -0.33139
 Alpha  occ. eigenvalues --   -0.33139
 Alpha virt. eigenvalues --   -0.22540  -0.22540   0.24634   0.27428   0.60982
 Alpha virt. eigenvalues --    0.70875   0.71352   0.71352   0.71849   0.71849
 Alpha virt. eigenvalues --    0.73571   0.81310   0.81310   0.82381   0.82545

 Mulliken charges and spin densities:
               1          2
     1  O    0.018257   0.000000
     2  O   -0.018257   0.000000
     3  O   -0.018257   0.000000
     4  O    0.018257   0.000000
 Sum of Mulliken charges =  -0.00000   0.00000

 Dipole moment (field-independent basis, Debye):
    X=             -0.0000    Y=             -0.0000    Z=              0.0000  Tot=              0.0000
 Quadrupole moment (field-independent basis, Debye-Ang):
   XX=            -20.7474   YY=            -20.7474   ZZ=            -21.6321
   XY=              0.0000   XZ=              0.0000   YZ=              0.0000

 074063\CCSD=-299.9632292\CCSD(T)=-300.2678795\RMSD=5.630e-09\PG=D*H [C
 Normal termination of Gaussian 16 at Sat Jan 14 21:35:24 2023.
