 Gaussian 16, Revision A.03,
 Gaussian 16:  ES64L-G16RevA.03 25-Dec-2016

 ---------------------------------------------------------------
 #p ROCCSD(T)/cc-pVTZ Guess=Read SCF=(VeryTight,CDIIS,VShift=10)
 ---------------------------------------------------------------

 --------
 O2_O2_74
 --------
 Symbolic Z-matrix:
 Charge =  0 Multiplicity = 1

                         Standard orientation:
 ---------------------------------------------------------------------
 Center     Atomic      Atomic             Coordinates (Angstroms)
 Number     Number       Type             X           Y           Z
 ---------------------------------------------------------------------
      1          8           0        0.000000    0.000000    1.840311
      2          8           0        0.000000    0.000000    3.192691
      3          8           0        0.000000    0.000000   -3.192691
      4          8           0        0.000000    0.000000   -1.840311
 ---------------------------------------------------------------------

 SCF Done:  E(ROHF) =  -298.700737024     A.U. after    7 cycles
 E2 =    -0.2520409407D+01 EUMP2 =    -0.30122114643132D+03
 CCSD(T)
 CCSD(T)= -0.30026243470D+03

 The electronic state is 1-SGG.
 Alpha  occ. eigenvalues --  -20.79937 -20.79936 -20.78013 -20.78013  -1.56029
 Alpha  occ. eigenvalues --   -1.55998  -1.16377  -1.16161  -0.71188  -0.70866
 Alpha  occ. eigenvalues --   -0.67060  -0.67060  -0.66577  -0.66577  -0.33408
 Alpha  occ. eigenvalues --   -0.33408
 Alpha virt. eigenvalues --   -0.22317  -0.22317   0.24172   0.27739   0.59367
 Alpha virt. eigenvalues --    0.71013   0.71163   0.71163   0.71960   0.71960
 Alpha virt. eigenvalues --    0.73301   0.80969   0.80969   0.82918   0.82918

 Mulliken charges and spin densities:
               1          2
     1  O    0.019728  -0.000000
     2  O   -0.019728  -0.000000
     3  O   -0.019728  -0.000000
     4  O    0.019728  -0.000000
 Sum of Mulliken charges =  -0.00000  -0.00000

 Dipole moment (field-independent basis, Debye):
    X=             -0.0000    Y=              0.0000    Z=             -0.0000  Tot=              0.0000
 Quadrupole moment (field-independent basis, Debye-Ang):
   XX=            -20.7519   YY=            -20.7519   ZZ=            -21.6551
   XY=              0.0000   XZ=              0.0000   YZ=              0.0000

 .208448\CCSD=-299.9641234\CCSD(T)=-300.2624347\RMSD=7.602e-09\PG=D*H [
 Normal termination of Gaussian 16 at Sat Jan 14 21:25:33 2023.
