 Gaussian 16, Revision A.03,
 Gaussian 16:  ES64L-G16RevA.03 25-Dec-2016

 ----------------------------------------------------------------------
 #p ROCCSD(T,MaxCyc=350)/cc-pVTZ Guess=Read SCF=(VeryTight,MaxCycle=250
 0,CDIIS,VShift=10)
 ----------------------------------------------------------------------

 ---------
 O2_O2_250
 ---------
 Symbolic Z-matrix:
 Charge =  0 Multiplicity = 1

                         Standard orientation:
 ---------------------------------------------------------------------
 Center     Atomic      Atomic             Coordinates (Angstroms)
 Number     Number       Type             X           Y           Z
 ---------------------------------------------------------------------
      1          8           0        0.000000    0.000000    4.332221
      2          8           0        0.000000    0.000000    5.684601
      3          8           0        0.000000    0.000000   -5.684601
      4          8           0        0.000000    0.000000   -4.332221
 ---------------------------------------------------------------------

 SCF Done:  E(ROHF) =  -298.642248837     A.U. after    6 cycles
 E2 =    -0.4627653994D+01 EUMP2 =    -0.30326990283075D+03
 CCSD(T)
 CCSD(T)= -0.30032689379D+03

 The electronic state is 1-SGG.
 Alpha  occ. eigenvalues --  -20.79032 -20.79032 -20.78593 -20.78593  -1.55876
 Alpha  occ. eigenvalues --   -1.55876  -1.16155  -1.16142  -0.70896  -0.70895
 Alpha  occ. eigenvalues --   -0.66720  -0.66720  -0.66668  -0.66668  -0.30435
 Alpha  occ. eigenvalues --   -0.30435
 Alpha virt. eigenvalues --   -0.25098  -0.25098   0.26272   0.26272   0.67738
 Alpha virt. eigenvalues --    0.67740   0.71687   0.71687   0.71687   0.71687
 Alpha virt. eigenvalues --    0.75343   0.75344   0.81964   0.81964   0.81964

 Mulliken charges and spin densities:
               1          2
     1  O    0.004889   0.000000
     2  O   -0.004889   0.000000
     3  O   -0.004889   0.000000
     4  O    0.004889   0.000000
 Sum of Mulliken charges =  -0.00000   0.00000

 Dipole moment (field-independent basis, Debye):
    X=             -0.0000    Y=             -0.0000    Z=             -0.0000  Tot=              0.0000
 Quadrupole moment (field-independent basis, Debye-Ang):
   XX=            -20.7394   YY=            -20.7394   ZZ=            -21.1579
   XY=              0.0000   XZ=              0.0000   YZ=              0.0000

 P2-0=-303.2699028\MP4SDQ=-452.2068786\CCSD=-299.9572474\CCSD(T)=-300.3
 Normal termination of Gaussian 16 at Sun Jan 15 09:26:48 2023.
