 Gaussian 16, Revision A.03,
 Gaussian 16:  ES64L-G16RevA.03 25-Dec-2016

 ----------------------------------------------------------------------
 #p ROCCSD(T,MaxCyc=350)/cc-pVTZ Guess=Read SCF=(VeryTight,MaxCycle=250
 0,CDIIS,VShift=10)
 ----------------------------------------------------------------------

 ---------
 O2_O2_161
 ---------
 Symbolic Z-matrix:
 Charge =  0 Multiplicity = 1

                         Standard orientation:
 ---------------------------------------------------------------------
 Center     Atomic      Atomic             Coordinates (Angstroms)
 Number     Number       Type             X           Y           Z
 ---------------------------------------------------------------------
      1          8           0        0.000000    0.000000    3.072107
      2          8           0        0.000000    0.000000    4.424487
      3          8           0        0.000000    0.000000   -4.424487
      4          8           0        0.000000    0.000000   -3.072107
 ---------------------------------------------------------------------

 SCF Done:  E(ROHF) =  -298.660797246     A.U. after    6 cycles
 E2 =    -0.3573077705D+01 EUMP2 =    -0.30223387495133D+03
 CCSD(T)
 CCSD(T)= -0.30030535022D+03

 The electronic state is 1-SGG.
 Alpha  occ. eigenvalues --  -20.79217 -20.79216 -20.78428 -20.78428  -1.55888
 Alpha  occ. eigenvalues --   -1.55886  -1.16175  -1.16141  -0.70908  -0.70905
 Alpha  occ. eigenvalues --   -0.66768  -0.66768  -0.66640  -0.66640  -0.31371
 Alpha  occ. eigenvalues --   -0.31371
 Alpha virt. eigenvalues --   -0.24178  -0.24178   0.26259   0.26266   0.67711
 Alpha virt. eigenvalues --    0.67741   0.71677   0.71677   0.71677   0.71677
 Alpha virt. eigenvalues --    0.75331   0.75342   0.81956   0.81956   0.81957

 Mulliken charges and spin densities:
               1          2
     1  O    0.008794   0.000000
     2  O   -0.008794   0.000000
     3  O   -0.008794   0.000000
     4  O    0.008794   0.000000
 Sum of Mulliken charges =   0.00000   0.00000

 Dipole moment (field-independent basis, Debye):
    X=             -0.0000    Y=              0.0000    Z=              0.0000  Tot=              0.0000
 Quadrupole moment (field-independent basis, Debye-Ang):
   XX=            -20.7394   YY=            -20.7394   ZZ=            -21.3457
   XY=              0.0000   XZ=              0.0000   YZ=              0.0000

 -0=-302.233875\MP4SDQ=-344.4305061\CCSD=-299.958921\CCSD(T)=-300.30535
 Normal termination of Gaussian 16 at Sun Jan 15 05:49:39 2023.
