 Gaussian 16, Revision A.03,
 Gaussian 16:  ES64L-G16RevA.03 25-Dec-2016

 ----------------------------------------------------------------------
 #p ROCCSD(T,MaxCyc=350)/cc-pVTZ Guess=Read SCF=(VeryTight,MaxCycle=250
 0,CDIIS,VShift=10)
 ----------------------------------------------------------------------

 ---------
 O2_O2_253
 ---------
 Symbolic Z-matrix:
 Charge =  0 Multiplicity = 1

                         Standard orientation:
 ---------------------------------------------------------------------
 Center     Atomic      Atomic             Coordinates (Angstroms)
 Number     Number       Type             X           Y           Z
 ---------------------------------------------------------------------
      1          8           0        0.000000    0.000000    4.374697
      2          8           0        0.000000    0.000000    5.727077
      3          8           0        0.000000    0.000000   -5.727077
      4          8           0        0.000000    0.000000   -4.374697
 ---------------------------------------------------------------------

 SCF Done:  E(ROHF) =  -298.641790764     A.U. after    6 cycles
 E2 =    -0.4663116709D+01 EUMP2 =    -0.30330490747262D+03
 CCSD(T)
 CCSD(T)= -0.30032743850D+03

 The electronic state is 1-SGG.
 Alpha  occ. eigenvalues --  -20.79029 -20.79028 -20.78596 -20.78596  -1.55876
 Alpha  occ. eigenvalues --   -1.55876  -1.16155  -1.16142  -0.70896  -0.70895
 Alpha  occ. eigenvalues --   -0.66719  -0.66719  -0.66668  -0.66668  -0.30412
 Alpha  occ. eigenvalues --   -0.30412
 Alpha virt. eigenvalues --   -0.25121  -0.25121   0.26272   0.26272   0.67738
 Alpha virt. eigenvalues --    0.67741   0.71687   0.71687   0.71687   0.71687
 Alpha virt. eigenvalues --    0.75344   0.75344   0.81965   0.81965   0.81965

 Mulliken charges and spin densities:
               1          2
     1  O    0.004807   0.000000
     2  O   -0.004807   0.000000
     3  O   -0.004807   0.000000
     4  O    0.004807   0.000000
 Sum of Mulliken charges =  -0.00000   0.00000

 Dipole moment (field-independent basis, Debye):
    X=             -0.0000    Y=              0.0000    Z=             -0.0000  Tot=              0.0000
 Quadrupole moment (field-independent basis, Debye-Ang):
   XX=            -20.7394   YY=            -20.7394   ZZ=            -21.1532
   XY=              0.0000   XZ=              0.0000   YZ=              0.0000

 2-0=-303.3049075\MP4SDQ=-457.4262414\CCSD=-299.9572094\CCSD(T)=-300.32
 Normal termination of Gaussian 16 at Sun Jan 15 09:33:20 2023.
