 Gaussian 16, Revision A.03,
 Gaussian 16:  ES64L-G16RevA.03 25-Dec-2016

 ----------------------------------------------------------------------
 #p ROCCSD(T,MaxCyc=250)/cc-pVTZ Guess=Read SCF=(VeryTight,MaxCycle=250
 0,CDIIS,VShift=10)
 ----------------------------------------------------------------------

 ---------
 O2_O2_143
 ---------
 Symbolic Z-matrix:
 Charge =  0 Multiplicity = 1

                         Standard orientation:
 ---------------------------------------------------------------------
 Center     Atomic      Atomic             Coordinates (Angstroms)
 Number     Number       Type             X           Y           Z
 ---------------------------------------------------------------------
      1          8           0        0.000000    0.000000    2.817252
      2          8           0        0.000000    0.000000    4.169633
      3          8           0        0.000000    0.000000   -4.169633
      4          8           0        0.000000    0.000000   -2.817252
 ---------------------------------------------------------------------

 SCF Done:  E(ROHF) =  -298.666280675     A.U. after    6 cycles
 E2 =    -0.3358872805D+01 EUMP2 =    -0.30202515347952D+03
 CCSD(T)
 CCSD(T)= -0.30029919038D+03

 The electronic state is 1-SGG.
 Alpha  occ. eigenvalues --  -20.79283 -20.79282 -20.78371 -20.78371  -1.55894
 Alpha  occ. eigenvalues --   -1.55890  -1.16184  -1.16141  -0.70914  -0.70908
 Alpha  occ. eigenvalues --   -0.66789  -0.66789  -0.66630  -0.66630  -0.31649
 Alpha  occ. eigenvalues --   -0.31649
 Alpha virt. eigenvalues --   -0.23908  -0.23908   0.26238   0.26278   0.67642
 Alpha virt. eigenvalues --    0.67797   0.71671   0.71671   0.71674   0.71674
 Alpha virt. eigenvalues --    0.75302   0.75365   0.81951   0.81951   0.81955

 Mulliken charges and spin densities:
               1          2
     1  O    0.010148   0.000000
     2  O   -0.010148   0.000000
     3  O   -0.010148   0.000000
     4  O    0.010148   0.000000
 Sum of Mulliken charges =  -0.00000   0.00000

 Dipole moment (field-independent basis, Debye):
    X=             -0.0000    Y=              0.0000    Z=             -0.0000  Tot=              0.0000
 Quadrupole moment (field-independent basis, Debye-Ang):
   XX=            -20.7394   YY=            -20.7394   ZZ=            -21.4003
   XY=              0.0000   XZ=              0.0000   YZ=              0.0000

 2-0=-302.0251535\MP4SDQ=-332.022703\CCSD=-299.9594776\CCSD(T)=-300.299
 Normal termination of Gaussian 16 at Sun Jan 15 04:13:39 2023.
