 Gaussian 16, Revision A.03,
 Gaussian 16:  ES64L-G16RevA.03 25-Dec-2016

 ---------------------------------------------------------------
 #p ROCCSD(T)/cc-pVTZ Guess=Read SCF=(VeryTight,CDIIS,VShift=10)
 ---------------------------------------------------------------

 ---------
 O2_O2_101
 ---------
 Symbolic Z-matrix:
 Charge =  0 Multiplicity = 1

                         Standard orientation:
 ---------------------------------------------------------------------
 Center     Atomic      Atomic             Coordinates (Angstroms)
 Number     Number       Type             X           Y           Z
 ---------------------------------------------------------------------
      1          8           0        0.000000    0.000000    2.222593
      2          8           0        0.000000    0.000000    3.574973
      3          8           0        0.000000    0.000000   -3.574973
      4          8           0        0.000000    0.000000   -2.222593
 ---------------------------------------------------------------------

 SCF Done:  E(ROHF) =  -298.683432188     A.U. after    7 cycles
 E2 =    -0.2854902348D+01 EUMP2 =    -0.30153833453558D+03
 CCSD(T)
 CCSD(T)= -0.30028050620D+03

 The electronic state is 1-SGG.
 Alpha  occ. eigenvalues --  -20.79539 -20.79538 -20.78183 -20.78183  -1.55930
 Alpha  occ. eigenvalues --   -1.55918  -1.16237  -1.16145  -0.70974  -0.70911
 Alpha  occ. eigenvalues --   -0.66886  -0.66886  -0.66594  -0.66594  -0.32524
 Alpha  occ. eigenvalues --   -0.32524
 Alpha virt. eigenvalues --   -0.23080  -0.23080   0.25678   0.26723   0.65349
 Alpha virt. eigenvalues --    0.69486   0.71594   0.71594   0.71700   0.71700
 Alpha virt. eigenvalues --    0.74484   0.76784   0.81799   0.81799   0.82071

 Mulliken charges and spin densities:
               1          2
     1  O    0.014836   0.000000
     2  O   -0.014836   0.000000
     3  O   -0.014836   0.000000
     4  O    0.014836   0.000000
 Sum of Mulliken charges =  -0.00000   0.00000

 Dipole moment (field-independent basis, Debye):
    X=             -0.0000    Y=             -0.0000    Z=             -0.0000  Tot=              0.0000
 Quadrupole moment (field-independent basis, Debye-Ang):
   XX=            -20.7412   YY=            -20.7412   ZZ=            -21.5569
   XY=              0.0000   XZ=              0.0000   YZ=              0.0000

 312.3348475\CCSD=-299.961469\CCSD(T)=-300.2805062\RMSD=2.462e-09\PG=D*
 Normal termination of Gaussian 16 at Sat Jan 14 22:07:44 2023.
