 Gaussian 16, Revision A.03,
 Gaussian 16:  ES64L-G16RevA.03 25-Dec-2016

 ---------------------------------------------------------------
 #p ROCCSD(T)/cc-pVTZ Guess=Read SCF=(VeryTight,CDIIS,VShift=10)
 ---------------------------------------------------------------

 --------
 O2_O2_66
 --------
 Symbolic Z-matrix:
 Charge =  0 Multiplicity = 1

                         Standard orientation:
 ---------------------------------------------------------------------
 Center     Atomic      Atomic             Coordinates (Angstroms)
 Number     Number       Type             X           Y           Z
 ---------------------------------------------------------------------
      1          8           0        0.000000    0.000000    1.727042
      2          8           0        0.000000    0.000000    3.079422
      3          8           0        0.000000    0.000000   -3.079422
      4          8           0        0.000000    0.000000   -1.727042
 ---------------------------------------------------------------------

 SCF Done:  E(ROHF) =  -298.707777172     A.U. after    7 cycles
 E2 =    -0.2417602371D+01 EUMP2 =    -0.30112537954236D+03
 CCSD(T)
 CCSD(T)= -0.30025529934D+03

 The electronic state is 1-SGG.
 Alpha  occ. eigenvalues --  -20.80144 -20.80142 -20.77951 -20.77951  -1.56092
 Alpha  occ. eigenvalues --   -1.56045  -1.16469  -1.16163  -0.71336  -0.70820
 Alpha  occ. eigenvalues --   -0.67154  -0.67154  -0.66577  -0.66577  -0.33763
 Alpha  occ. eigenvalues --   -0.33763
 Alpha virt. eigenvalues --   -0.22032  -0.22032   0.23713   0.28117   0.58205
 Alpha virt. eigenvalues --    0.70828   0.70828   0.70942   0.72133   0.72133
 Alpha virt. eigenvalues --    0.73039   0.80445   0.80445   0.83561   0.83561

 Mulliken charges and spin densities:
               1          2
     1  O    0.021676   0.000000
     2  O   -0.021676   0.000000
     3  O   -0.021676   0.000000
     4  O    0.021676   0.000000
 Sum of Mulliken charges =  -0.00000   0.00000

 Dipole moment (field-independent basis, Debye):
    X=             -0.0000    Y=              0.0000    Z=             -0.0000  Tot=              0.0000
 Quadrupole moment (field-independent basis, Debye-Ang):
   XX=            -20.7594   YY=            -20.7594   ZZ=            -21.6786
   XY=              0.0000   XZ=              0.0000   YZ=              0.0000

 03.7651398\CCSD=-299.9654356\CCSD(T)=-300.2552993\RMSD=6.891e-09\PG=D*
 Normal termination of Gaussian 16 at Sat Jan 14 21:13:31 2023.
