 Gaussian 16, Revision A.03,
 Gaussian 16:  ES64L-G16RevA.03 25-Dec-2016

 ----------------------
 # MP2/CEP-31G Pop=Full
 ----------------------

 ---------
 Beryllium
 ---------
 Symbolic Z-matrix:
 Charge =  0 Multiplicity = 1

                         Standard orientation:
 ---------------------------------------------------------------------
 Center     Atomic      Atomic             Coordinates (Angstroms)
 Number     Number       Type             X           Y           Z
 ---------------------------------------------------------------------
      1          4           0        0.000000    0.000000    0.000000
 ---------------------------------------------------------------------

 SCF Done:  E(RHF) = -0.960190852469     A.U. after    4 cycles
 E2 =    -0.2285418427D-01 EUMP2 =    -0.98304503674330D+00

 The electronic state is 1-A1G.
 Alpha  occ. eigenvalues --   -0.30899
 Alpha virt. eigenvalues --    0.04700   0.04700   0.04700   0.25298   0.25298
 Alpha virt. eigenvalues --    0.25298   0.42248

 Mulliken charges:
               1
     1  Be  -0.000000
 Sum of Mulliken charges =  -0.00000

 Dipole moment (field-independent basis, Debye):
    X=              0.0000    Y=              0.0000    Z=              0.0000  Tot=              0.0000
 Quadrupole moment (field-independent basis, Debye-Ang):
   XX=             -7.5690   YY=             -7.5690   ZZ=             -7.5690
   XY=              0.0000   XZ=              0.0000   YZ=              0.0000

 Normal termination of Gaussian 16 at Sun Aug 14 20:09:19 2022.
