 Gaussian 16, Revision A.03,
 Gaussian 16:  ES64L-G16RevA.03 25-Dec-2016

 ------------------------------------------------
 # B3LYP/cc-pVDZ EmpiricalDispersion=GD3 Pop=Full
 ------------------------------------------------

 --------
 Hydrogen
 --------
 Symbolic Z-matrix:
 Charge =  0 Multiplicity = 2

                         Standard orientation:
 ---------------------------------------------------------------------
 Center     Atomic      Atomic             Coordinates (Angstroms)
 Number     Number       Type             X           Y           Z
 ---------------------------------------------------------------------
      1          1           0        0.000000    0.000000    0.000000
 ---------------------------------------------------------------------

 SCF Done:  E(UB3LYP) = -0.501257936920     A.U. after    5 cycles

 The electronic state is 2-A1G.
 Alpha  occ. eigenvalues --   -0.31948
 Alpha virt. eigenvalues --    0.41803   1.20992   1.20992   1.20992
  Beta virt. eigenvalues --    0.04592   0.72224   1.53951   1.53951   1.53951

 Mulliken charges and spin densities:
               1          2
     1  H   -0.000000   1.000000
 Sum of Mulliken charges =  -0.00000   1.00000

 Dipole moment (field-independent basis, Debye):
    X=              0.0000    Y=              0.0000    Z=              0.0000  Tot=              0.0000
 Quadrupole moment (field-independent basis, Debye-Ang):
   XX=             -1.3419   YY=             -1.3419   ZZ=             -1.3419
   XY=              0.0000   XZ=              0.0000   YZ=              0.0000

 Normal termination of Gaussian 16 at Sun Aug 14 20:09:25 2022.
